
     Program PWSCF v.5.0        starts on 30Oct2013 at 14:22:54 

     This program is part of the open-source Quantum ESPRESSO suite
     for quantum simulation of materials; please cite
         "P. Giannozzi et al., J. Phys.:Condens. Matter 21 395502 (2009);
          URL http://www.quantum-espresso.org", 
     in publications or presentations arising from this work. More details at
     http://www.quantum-espresso.org/quote.php

     Parallel version (MPI), running on     1 processors

     Current dimensions of program PWSCF are:
     Max number of different atomic species (ntypx) = 10
     Max number of k-points (npk) =  40000
     Max angular momentum in pseudopotentials (lmaxx) =  3
     Waiting for input...
     Reading input from standard input

     Subspace diagonalization in iterative solution of the eigenvalue problem:
     a serial algorithm will be used

 kpoint style unhandled: 
 none                                                                           
  
 
     G-vector sticks info
     --------------------
     sticks:   dense  smooth     PW     G-vecs:    dense   smooth      PW
     Sum         649     313    121                10777     3719     869
 

     Title: 
     Cu_fcc                                                                     


     bravais-lattice index     =            2
     lattice parameter (alat)  =       6.9420  a.u.
     unit-cell volume          =      83.6361 (a.u.)^3
     number of atoms/cell      =            1
     number of atomic types    =            1
     number of electrons       =        11.00
     number of Kohn-Sham states=           10
     kinetic-energy cutoff     =      48.0000  Ry
     charge density cutoff     =     384.0000  Ry
     convergence threshold     =      1.0E-12
     mixing beta               =       0.7000
     number of iterations used =            8  plain     mixing
     Exchange-correlation      =  SLA  PW   PBE  PBE ( 1 4 3 4 0)
     EXX-fraction              =        0.00

     celldm(1)=   6.942000  celldm(2)=   0.000000  celldm(3)=   0.000000
     celldm(4)=   0.000000  celldm(5)=   0.000000  celldm(6)=   0.000000

     crystal axes: (cart. coord. in units of alat)
               a(1) = (  -0.500000   0.000000   0.500000 )  
               a(2) = (   0.000000   0.500000   0.500000 )  
               a(3) = (  -0.500000   0.500000   0.000000 )  

     reciprocal axes: (cart. coord. in units 2 pi/alat)
               b(1) = ( -1.000000 -1.000000  1.000000 )  
               b(2) = (  1.000000  1.000000  1.000000 )  
               b(3) = ( -1.000000  1.000000 -1.000000 )  


     PseudoPot. # 1 for Cu read from file:
     ../pseudo/Cu.pbe-d-rrkjus.UPF
     MD5 check sum: 855c9c66b119533e70b4be5d3ca221fe
     Pseudo is Ultrasoft, Zval = 11.0
     Generated by new atomic code, or converted to UPF format
     Using radial grid of  899 points,  3 beta functions with: 
                l(1) =   2
                l(2) =   2
                l(3) =   1
     Q(r) pseudized with 0 coefficients 


     atomic species   valence    mass     pseudopotential
        Cu            11.00    63.54600     Cu( 1.00)

     48 Sym. Ops., with inversion, found



   Cartesian axes

     site n.     atom                  positions (alat units)
         1           Cu  tau(   1) = (   0.0000000   0.0000000   0.0000000  )

     number of k points=   408  gaussian smearing, width (Ry)=  0.0000

     Number of k-points >= 100: set verbosity='high' to print them.

     Dense  grid:    10777 G-vectors     FFT dimensions: (  32,  32,  32)

     Smooth grid:     3719 G-vectors     FFT dimensions: (  24,  24,  24)

     Largest allocated arrays     est. size (Mb)     dimensions
        Kohn-Sham Wavefunctions         0.08 Mb     (    495,   10)
        NL pseudopotentials             0.10 Mb     (    495,   13)
        Each V/rho on FFT grid          0.50 Mb     (  32768)
        Each G-vector array             0.08 Mb     (  10777)
        G-vector shells                 0.00 Mb     (    159)
     Largest temporary arrays     est. size (Mb)     dimensions
        Auxiliary wavefunctions         0.30 Mb     (    495,   40)
        Each subspace H/S matrix        0.02 Mb     (  40,  40)
        Each <psi_i|beta_j> matrix      0.00 Mb     (     13,   10)
        Arrays for rho mixing           4.00 Mb     (  32768,   8)

     Initial potential from superposition of free atoms

     starting charge   10.99956, renormalised to   11.00000
     Starting wfc are    6 randomized atomic wfcs

     total cpu time spent up to now is        2.0 secs

     per-process dynamical memory:    14.1 Mb

     Self-consistent Calculation

     iteration #  1     ecut=    48.00 Ry     beta=0.70
     Davidson diagonalization with overlap
     ethr =  1.00E-02,  avg # of iterations =  4.7
     Warning: too many iterations in bisection
     Ef =  14.600024 sumk =  11.000000 electrons

     total cpu time spent up to now is        9.4 secs

     total energy              =     -87.53294106 Ry
     Harris-Foulkes estimate   =     -87.69899496 Ry
     estimated scf accuracy    <       0.23076837 Ry

     iteration #  2     ecut=    48.00 Ry     beta=0.70
     Davidson diagonalization with overlap
     ethr =  2.10E-03,  avg # of iterations =  2.0
     Warning: too many iterations in bisection
     Ef =  12.464508 sumk =  11.000000 electrons

     total cpu time spent up to now is       14.6 secs

     total energy              =     -87.60779546 Ry
     Harris-Foulkes estimate   =     -87.70673734 Ry
     estimated scf accuracy    <       0.20498789 Ry

     iteration #  3     ecut=    48.00 Ry     beta=0.70
     Davidson diagonalization with overlap
     ethr =  1.86E-03,  avg # of iterations =  1.0
     Warning: too many iterations in bisection
     Ef =  13.256457 sumk =  11.000000 electrons

     total cpu time spent up to now is       19.0 secs

     total energy              =     -87.63974271 Ry
     Harris-Foulkes estimate   =     -87.64032083 Ry
     estimated scf accuracy    <       0.00108456 Ry

     iteration #  4     ecut=    48.00 Ry     beta=0.70
     Davidson diagonalization with overlap
     ethr =  9.86E-06,  avg # of iterations =  2.2
     Warning: too many iterations in bisection
     Ef =  13.333380 sumk =  11.000000 electrons

     total cpu time spent up to now is       24.7 secs

     total energy              =     -87.64022811 Ry
     Harris-Foulkes estimate   =     -87.64023932 Ry
     estimated scf accuracy    <       0.00006543 Ry

     iteration #  5     ecut=    48.00 Ry     beta=0.70
     Davidson diagonalization with overlap
     ethr =  5.95E-07,  avg # of iterations =  1.0
     Warning: too many iterations in bisection
     Ef =  13.324775 sumk =  11.000000 electrons

     total cpu time spent up to now is       29.1 secs

     total energy              =     -87.64022343 Ry
     Harris-Foulkes estimate   =     -87.64023070 Ry
     estimated scf accuracy    <       0.00001702 Ry

     iteration #  6     ecut=    48.00 Ry     beta=0.70
     Davidson diagonalization with overlap
     ethr =  1.55E-07,  avg # of iterations =  1.0
     Warning: too many iterations in bisection
     Ef =  13.317689 sumk =  11.000000 electrons

     total cpu time spent up to now is       33.5 secs

     total energy              =     -87.64022630 Ry
     Harris-Foulkes estimate   =     -87.64022629 Ry
     estimated scf accuracy    <       0.00000003 Ry

     iteration #  7     ecut=    48.00 Ry     beta=0.70
     Davidson diagonalization with overlap
     ethr =  2.69E-10,  avg # of iterations =  2.0
     Warning: too many iterations in bisection
     Ef =  13.317300 sumk =  11.000000 electrons

     total cpu time spent up to now is       38.8 secs

     total energy              =     -87.64022631 Ry
     Harris-Foulkes estimate   =     -87.64022631 Ry
     estimated scf accuracy    <          6.6E-10 Ry

     iteration #  8     ecut=    48.00 Ry     beta=0.70
     Davidson diagonalization with overlap
     ethr =  6.04E-12,  avg # of iterations =  1.3
     Warning: too many iterations in bisection
     Ef =  13.317288 sumk =  11.000000 electrons

     total cpu time spent up to now is       43.4 secs

     total energy              =     -87.64022631 Ry
     Harris-Foulkes estimate   =     -87.64022631 Ry
     estimated scf accuracy    <          4.4E-10 Ry

     iteration #  9     ecut=    48.00 Ry     beta=0.70
     Davidson diagonalization with overlap
     ethr =  3.97E-12,  avg # of iterations =  1.0
     Warning: too many iterations in bisection
     Ef =  13.317325 sumk =  11.000000 electrons

     total cpu time spent up to now is       47.7 secs

     total energy              =     -87.64022631 Ry
     Harris-Foulkes estimate   =     -87.64022631 Ry
     estimated scf accuracy    <          1.9E-12 Ry

     iteration # 10     ecut=    48.00 Ry     beta=0.70
     Davidson diagonalization with overlap
     ethr =  1.00E-13,  avg # of iterations =  1.1
     Warning: too many iterations in bisection
     Ef =  13.317328 sumk =  11.000000 electrons

     total cpu time spent up to now is       52.2 secs

     End of self-consistent calculation

          k =-0.0312 0.0312 0.0312 (   477 PWs)   bands (ev):

     4.4462  10.2325  10.2459  10.2459  10.9863  10.9863  36.1988  37.5552
    38.0552  38.0552

          k =-0.0938 0.0938-0.0312 (   487 PWs)   bands (ev):

     4.6290  10.1939  10.2764  10.2844  10.9574  10.9916  34.5973  36.0572
    37.4802  38.2982

          k =-0.1562 0.1562-0.0938 (   483 PWs)   bands (ev):

     5.0778  10.1171  10.3430  10.3479  10.9257  10.9969  31.3157  35.2034
    37.2847  37.7535

          k =-0.2188 0.2188-0.1562 (   481 PWs)   bands (ev):

     5.7668  10.0362  10.3904  10.3969  10.9377  11.0440  28.0486  34.5466
    36.9193  37.1185

          k =-0.2812 0.2812-0.2188 (   481 PWs)   bands (ev):

     6.6322  10.0211  10.3751  10.3862  11.0389  11.1617  24.9745  34.0707
    36.3830  36.5741

          k =-0.3438 0.3438-0.2812 (   474 PWs)   bands (ev):

     7.5133  10.2191  10.3184  10.3283  11.1995  11.3278  22.1443  33.7959
    35.7929  36.1024

          k =-0.4062 0.4062-0.3438 (   473 PWs)   bands (ev):

     8.1203  10.2535  10.2658  10.8264  11.3601  11.5400  19.6282  33.7361
    35.2715  35.6180

          k =-0.4688 0.4688-0.4062 (   470 PWs)   bands (ev):

     8.3626  10.2075  10.2242  11.3460  11.4768  12.1425  17.6414  33.8955
    34.9033  35.0895

          k = 0.4688-0.4688 0.5312 (   470 PWs)   bands (ev):

     8.4066  10.1930  10.2151  11.4010  11.5229  12.5515  16.9640  34.2379
    34.6194  34.7590

          k = 0.4062-0.4062 0.4688 (   470 PWs)   bands (ev):

     8.3118  10.2144  10.2402  11.2224  11.4893  11.8550  18.2155  34.3180
    34.5226  35.0593

          k = 0.3438-0.3438 0.4062 (   475 PWs)   bands (ev):

     7.9631  10.2668  10.2922  10.5745  11.3863  11.3868  20.4241  34.2350
    34.7188  35.7599

          k = 0.2812-0.2812 0.3438 (   477 PWs)   bands (ev):

     7.2344  10.1134  10.3351  10.3540  11.1723  11.2426  23.0572  34.3819
    35.0062  36.5614

          k = 0.2188-0.2188 0.2812 (   481 PWs)   bands (ev):

     6.3310  10.0104  10.3882  10.3962  11.0082  11.1037  25.9742  34.7557
    35.3883  37.3210

          k = 0.1562-0.1562 0.2188 (   483 PWs)   bands (ev):

     5.5132  10.0586  10.3831  10.3856  10.9268  11.0186  29.1194  35.3485
    35.8366  37.9138

          k = 0.0938-0.0938 0.1562 (   485 PWs)   bands (ev):

     4.8998  10.1431  10.3223  10.3262  10.9306  10.9959  32.4319  36.1466
    36.3031  38.2078

          k = 0.0312-0.0312 0.0938 (   488 PWs)   bands (ev):

     4.5378  10.2087  10.2652  10.2666  10.9633  10.9962  35.5489  36.8843
    37.1097  38.0789

          k =-0.0312 0.1562 0.0312 (   490 PWs)   bands (ev):

     4.7199  10.1590  10.3065  10.3076  10.9191  11.0158  34.6486  35.9407
    36.0847  37.5759

          k =-0.0938 0.2188-0.0312 (   485 PWs)   bands (ev):

     5.0787  10.0827  10.3704  10.3726  10.8646  11.0402  32.5374  33.9481
    36.3125  37.8530

          k =-0.1562 0.2812-0.0938 (   480 PWs)   bands (ev):

     5.6861   9.9923  10.4159  10.4413  10.8532  11.0903  29.2606  33.1459
    35.8305  39.0483

          k =-0.2188 0.3438-0.1562 (   476 PWs)   bands (ev):

     6.4942   9.9323  10.3848  10.4570  10.9633  11.2016  26.1197  32.5873
    35.3326  37.4975

          k =-0.2812 0.4062-0.2188 (   473 PWs)   bands (ev):

     7.3831   9.9957  10.3015  10.4166  11.1734  11.3805  23.2010  32.2625
    34.8534  35.9940

          k =-0.3438 0.4688-0.2812 (   472 PWs)   bands (ev):

     8.0919  10.2091  10.3244  10.3648  11.3793  11.7076  20.5586  32.1844
    34.1278  35.1075

          k =-0.4062 0.5312-0.3438 (   469 PWs)   bands (ev):

     8.4229  10.1507  10.3026  10.7926  11.4908  12.4070  18.3222  32.3491
    33.1880  34.8716

          k = 0.5312-0.4062 0.5938 (   467 PWs)   bands (ev):

     8.5110  10.1272  10.2767  11.0055  11.5157  13.1369  17.0205  32.2641
    32.9327  34.9278

          k = 0.4688-0.3438 0.5312 (   466 PWs)   bands (ev):

     8.4712  10.1453  10.2843  10.9241  11.4629  12.7208  17.7325  31.7533
    33.6239  35.2075

          k = 0.4062-0.2812 0.4688 (   472 PWs)   bands (ev):

     8.2442  10.2003  10.3234  10.5243  11.3347  11.9507  19.7582  31.4751
    34.5826  35.6993

          k = 0.3438-0.2188 0.4062 (   474 PWs)   bands (ev):

     7.6577  10.0887  10.2796  10.3884  11.1489  11.5422  22.2881  31.4545
    35.6495  36.4463

          k = 0.2812-0.1562 0.3438 (   475 PWs)   bands (ev):

     6.7920   9.9462  10.3592  10.4467  10.9633  11.3028  25.1220  31.6826
    36.5113  37.6341

          k = 0.2188-0.0938 0.2812 (   480 PWs)   bands (ev):

     5.9371   9.9789  10.4024  10.4534  10.8551  11.1384  28.1928  32.1486
    37.1408  39.0956

          k = 0.1562-0.0312 0.2188 (   484 PWs)   bands (ev):

     5.2549  10.0669  10.3812  10.3849  10.8641  11.0481  31.4224  32.8756
    37.5173  38.8637

          k = 0.0938 0.0312 0.1562 (   486 PWs)   bands (ev):

     4.8101  10.1509  10.3121  10.3203  10.9208  11.0086  33.5583  35.0090
    37.0769  38.3428

          k =-0.0312 0.2812 0.0312 (   481 PWs)   bands (ev):

     5.3435   9.9954  10.4461  10.4478  10.7848  11.0803  32.7041  33.6078
    34.4997  36.0356

          k =-0.0938 0.3438-0.0312 (   478 PWs)   bands (ev):

     5.8575   9.8910  10.4901  10.5435  10.7626  11.1313  30.6213  31.9136
    34.7382  36.0038

          k =-0.1562 0.4062-0.0938 (   476 PWs)   bands (ev):

     6.5821   9.7983  10.4087  10.5928  10.9267  11.2325  27.4659  31.2287
    34.1689  35.3781

          k =-0.2188 0.4688-0.1562 (   473 PWs)   bands (ev):

     7.4256   9.7671  10.2828  10.5757  11.2068  11.4223  24.4765  30.8104
    33.0985  34.5304

          k =-0.2812 0.5312-0.2188 (   465 PWs)   bands (ev):

     8.1774   9.8744  10.1861  10.5233  11.4165  11.8798  21.7256  30.6574
    31.7986  34.2134

          k =-0.3438 0.5938-0.2812 (   466 PWs)   bands (ev):

     8.5874   9.9859  10.3009  10.4680  11.5110  12.7360  19.2908  30.4981
    30.9320  34.1625

          k = 0.5938-0.3438 0.6562 (   464 PWs)   bands (ev):

     8.7188   9.9736  10.4201  10.5394  11.5203  13.8044  17.4568  29.6244
    31.3062  34.3397

          k = 0.5312-0.2812 0.5938 (   466 PWs)   bands (ev):

     8.7258   9.9928  10.4089  10.5658  11.4485  13.8303  17.4612  28.9440
    32.0371  34.7615

          k = 0.4688-0.2188 0.5312 (   466 PWs)   bands (ev):

     8.6075  10.0587  10.3266  10.4389  11.3061  12.8401  19.3023  28.5296
    33.0457  35.4504

          k = 0.4062-0.1562 0.4688 (   472 PWs)   bands (ev):

     8.2014   9.9934  10.1599  10.4872  11.1116  12.0910  21.7397  28.3867
    34.2985  36.4195

          k = 0.3438-0.0938 0.4062 (   471 PWs)   bands (ev):

     7.4386   9.8494  10.2720  10.5572  10.9026  11.6488  24.4889  28.5127
    35.7594  37.6488

          k = 0.2812-0.0312 0.3438 (   478 PWs)   bands (ev):

     6.5852   9.8777  10.3654  10.5864  10.7635  11.3545  27.4468  28.9295
    37.3828  38.8910

          k = 0.2188 0.0312 0.2812 (   479 PWs)   bands (ev):

     5.8562   9.9703  10.4055  10.4795  10.8061  11.1530  29.3724  30.8316
    38.0907  39.0996

          k = 0.1562 0.0938 0.2188 (   481 PWs)   bands (ev):

     5.3415  10.0660  10.3801  10.3842  10.8890  11.0344  30.2563  34.1650
    36.6505  38.7009

          k =-0.0312 0.4062 0.0312 (   476 PWs)   bands (ev):

     6.2680   9.7706  10.5785  10.6565  10.7192  11.1707  30.8173  31.4814
    33.1701  34.0055

          k =-0.0938 0.4688-0.0312 (   473 PWs)   bands (ev):

     6.8818   9.6555  10.4813  10.7715  10.9001  11.2490  28.9115  30.0723
    32.5295  33.6178

          k =-0.1562 0.5312-0.0938 (   471 PWs)   bands (ev):

     7.6191   9.5751  10.3435  10.7899  11.2282  11.4376  25.9396  29.5325
    30.9255  33.5778

          k =-0.2188 0.5938-0.1562 (   466 PWs)   bands (ev):

     8.3182   9.5696  10.2254  10.7503  11.4385  12.0004  23.1208  29.2098
    29.5273  33.4341

          k =-0.2812 0.6562-0.2188 (   466 PWs)   bands (ev):

     8.7667   9.6537  10.1864  10.6913  11.5282  12.9926  20.5484  28.1231
    29.4109  33.4267

          k = 0.6562-0.2812 0.7188 (   465 PWs)   bands (ev):

     8.9518   9.7225  10.2557  10.6357  11.5323  14.3161  18.3514  27.0886
    29.7948  33.6023

          k = 0.5938-0.2188 0.6562 (   465 PWs)   bands (ev):

     9.0139   9.7673  10.2882  10.5993  11.4527  15.0661  17.4253  26.3025
    30.4914  33.9927

          k = 0.5312-0.1562 0.5938 (   466 PWs)   bands (ev):

     8.9884   9.8509  10.1514  10.5965  11.3028  13.9832  19.0342  25.7843
    31.4726  34.6276

          k = 0.4688-0.0938 0.5312 (   470 PWs)   bands (ev):

     8.7663   9.8949   9.9844  10.6253  11.1053  12.8851  21.3882  25.5477
    32.7044  35.5298

          k = 0.4062-0.0312 0.4688 (   473 PWs)   bands (ev):

     8.1775   9.7735  10.1313  10.6771  10.8930  12.1509  23.9969  25.6418
    34.1479  36.6986

          k = 0.3438 0.0312 0.4062 (   475 PWs)   bands (ev):

     7.3899   9.8065  10.2687  10.6627  10.7814  11.6709  25.6553  27.1931
    35.7487  37.9944

          k = 0.2812 0.0938 0.3438 (   476 PWs)   bands (ev):

     6.6552   9.9000  10.3637  10.5165  10.8536  11.3363  26.2670  30.2546
    37.1421  38.1513

          k = 0.2188 0.1562 0.2812 (   477 PWs)   bands (ev):

     6.0968   9.9939  10.3967  10.4206  10.9315  11.1149  27.0484  33.5512
    36.1443  38.2199

          k =-0.0312 0.5312 0.0312 (   470 PWs)   bands (ev):

     7.3509   9.5208  10.5947  10.9134  10.9703  11.2740  29.1153  29.6382
    30.5553  32.2175

          k =-0.0938 0.5938-0.0312 (   467 PWs)   bands (ev):

     7.9062   9.4139  10.5873  11.0325  11.2261  11.4201  27.4430  28.4560
    28.8841  32.6017

          k =-0.1562 0.6562-0.0938 (   467 PWs)   bands (ev):

     8.4244   9.3589  10.4959  11.0138  11.4450  12.0681  24.6980  27.2413
    28.1758  32.7569

          k =-0.2188 0.7188-0.1562 (   465 PWs)   bands (ev):

     8.8011   9.3736  10.3982  10.9552  11.5416  13.1846  22.0673  25.8991
    28.1467  32.7982

          k = 0.7188-0.2188 0.7812 (   467 PWs)   bands (ev):

     9.0311   9.4406  10.3151  10.8883  11.5501  14.6539  19.6820  24.7891
    28.4606  32.9531

          k = 0.6562-0.1562 0.7188 (   464 PWs)   bands (ev):

     9.1837   9.5167  10.2240  10.8283  11.4733  16.1644  17.8457  23.9332
    29.0994  33.2800

          k = 0.5938-0.0938 0.6562 (   463 PWs)   bands (ev):

     9.2724   9.6166  10.0714  10.7858  11.3309  15.3800  18.8827  23.3591
    30.0345  33.8113

          k = 0.5312-0.0312 0.5938 (   469 PWs)   bands (ev):

     9.2051   9.7747   9.8703  10.7560  11.1601  13.9737  21.0462  23.1699
    31.2276  34.5676

          k = 0.4688 0.0312 0.5312 (   473 PWs)   bands (ev):

     8.8157   9.7921   9.9639  10.7013  11.0269  12.8922  22.4640  24.2954
    32.6347  35.5412

          k = 0.4062 0.0938 0.4688 (   470 PWs)   bands (ev):

     8.1862   9.8458  10.1417  10.5857  10.9940  12.1311  22.8626  26.9391
    34.1997  36.6096

          k = 0.3438 0.1562 0.4062 (   471 PWs)   bands (ev):

     7.5311   9.9405  10.2767  10.4645  11.0265  11.6054  23.3500  29.9537
    35.7552  37.0748

          k = 0.2812 0.2188 0.3438 (   477 PWs)   bands (ev):

     6.9888  10.0179  10.3501  10.3915  11.0761  11.2617  24.0502  33.1483
    35.6680  37.1423

          k =-0.0312 0.6562 0.0312 (   471 PWs)   bands (ev):

     8.2086   9.2845  11.0041  11.1830  11.3779  11.3883  26.9311  27.7186
    28.1335  31.4882

          k =-0.0938 0.7188-0.0312 (   466 PWs)   bands (ev):

     8.4739   9.2028  11.0017  11.2850  11.4351  12.1556  25.3017  26.3090
    27.2703  31.9312

          k =-0.1562 0.7812-0.0938 (   466 PWs)   bands (ev):

     8.6962   9.1844  10.8574  11.2215  11.5508  13.3718  23.7077  24.0116
    27.1353  32.2476

          k = 0.7812-0.1562 0.8438 (   470 PWs)   bands (ev):

     8.8918   9.2309  10.6719  11.1434  11.5740  14.8859  21.3359  22.8182
    27.3574  32.4303

          k = 0.7188-0.0938 0.7812 (   469 PWs)   bands (ev):

     9.0822   9.3228  10.4540  11.0593  11.5115  16.6105  19.1281  21.9813
    27.9215  32.7103

          k = 0.6562-0.0312 0.7188 (   465 PWs)   bands (ev):

     9.2723   9.4317  10.2117  10.9652  11.3971  17.0345  18.5435  21.5852
    28.7973  33.1500

          k = 0.5938 0.0312 0.6562 (   466 PWs)   bands (ev):

     9.3475   9.5833  10.0063  10.8448  11.2852  15.3804  19.7366  22.2699
    29.9425  33.7762

          k = 0.5312 0.0938 0.5938 (   469 PWs)   bands (ev):

     9.1161   9.8001   9.9818  10.6899  11.2206  13.9809  20.0613  24.3514
    31.3095  34.5877

          k = 0.4688 0.1562 0.5312 (   467 PWs)   bands (ev):

     8.6898  10.0126  10.0875  10.5286  11.2066  12.8691  20.2977  26.9939
    32.8425  35.5027

          k = 0.4062 0.2188 0.4688 (   469 PWs)   bands (ev):

     8.2208  10.1811  10.2177  10.4009  11.2273  12.0303  20.6997  29.9085
    34.4336  36.1141

          k = 0.3438 0.2812 0.4062 (   476 PWs)   bands (ev):

     7.8059  10.2764  10.3003  10.3337  11.2678  11.4644  21.3116  32.9709
    35.2310  36.0191

          k =-0.0312 0.7812 0.0312 (   460 PWs)   bands (ev):

     8.5170   9.0964  11.3954  11.3971  11.4904  12.6225  23.6516  26.6529
    27.0281  31.0129

          k =-0.0938 0.8438-0.0312 (   460 PWs)   bands (ev):

     8.5921   9.0528  11.3159  11.4468  11.5643  13.6868  22.2763  25.5098
    26.4253  31.5252

          k = 0.8438-0.0938 0.9062 (   465 PWs)   bands (ev):

     8.7125   9.0795  11.1181  11.3509  11.6082  15.0414  21.2267  23.2674
    26.5370  31.9799

          k = 0.7812-0.0312 0.8438 (   469 PWs)   bands (ev):

     8.8790   9.1703  10.8208  11.2490  11.5673  16.4408  20.5181  21.1907
    27.0103  32.2805

          k = 0.7188 0.0312 0.7812 (   469 PWs)   bands (ev):

     9.0804   9.3034  10.4882  11.1059  11.4921  17.3986  18.9391  21.1017
    27.8124  32.6634

          k = 0.6562 0.0938 0.7188 (   462 PWs)   bands (ev):

     9.2459   9.4574  10.2156  10.9123  11.4296  16.8459  18.0058  22.5719
    28.8983  33.1928

          k = 0.5938 0.1562 0.6562 (   465 PWs)   bands (ev):

     9.1531   9.6801  10.1725  10.6967  11.3938  15.3217  18.0057  24.7638
    30.2178  33.8827

          k = 0.5312 0.2188 0.5938 (   465 PWs)   bands (ev):

     8.8538   9.9185  10.3493  10.5002  11.3825  13.9509  18.1386  27.3262
    31.7158  34.6865

          k = 0.4688 0.2812 0.5312 (   465 PWs)   bands (ev):

     8.5322  10.1046  10.3482  10.6216  11.3936  12.7924  18.4364  30.1270
    33.3088  35.3580

          k = 0.4062 0.3438 0.4688 (   473 PWs)   bands (ev):

     8.2735  10.2121  10.2729  10.8809  11.4295  11.8647  18.9263  33.0316
    34.6823  35.2434

          k =-0.0312 0.9062 0.0312 (   466 PWs)   bands (ev):

     8.5520   8.9829  11.4758  11.5817  11.6201  14.2817  21.0288  26.0333
    26.3856  30.7583

          k = 0.9062-0.0312 0.9688 (   465 PWs)   bands (ev):

     8.5906   8.9847  11.4531  11.4878  11.6505  15.0537  20.3309  25.1556
    26.0505  31.3559

          k = 0.8438 0.0312 0.9062 (   465 PWs)   bands (ev):

     8.7066   9.0579  11.1755  11.3741  11.6207  15.6313  20.4439  23.1555
    26.4149  31.9275

          k = 0.7812 0.0938 0.8438 (   470 PWs)   bands (ev):

     8.8863   9.1903  10.7692  11.2112  11.5721  15.7800  21.0312  21.6343
    27.1267  32.3300

          k = 0.7188 0.1562 0.7812 (   469 PWs)   bands (ev):

     9.0726   9.3672  10.3922  10.9818  11.5352  15.6256  19.3693  23.2866
    28.1385  32.8057

          k = 0.6562 0.2188 0.7188 (   465 PWs)   bands (ev):

     9.0848   9.6075  10.2374  10.7323  11.5106  15.2379  18.0251  25.4583
    29.3989  33.4149

          k = 0.5938 0.2812 0.6562 (   464 PWs)   bands (ev):

     8.8672   9.8689  10.4097  10.5064  11.4968  14.5180  17.2786  27.9312
    30.8540  34.1441

          k = 0.5312 0.3438 0.5938 (   464 PWs)   bands (ev):

     8.6105  10.0648  10.3342  10.7869  11.4944  13.5609  17.0810  30.6118
    32.4358  34.8461

          k = 0.4688 0.4062 0.5312 (   470 PWs)   bands (ev):

     8.4285  10.1758  10.2393  11.2065  11.5084  12.6292  17.2287  33.3186
    33.9883  34.9872

          k =-0.0312-0.9688 0.0312 (   466 PWs)   bands (ev):

     8.5497   8.9595  11.4886  11.6196  11.6523  14.8342  20.2929  25.9064
    26.2543  30.7082

          k =-0.0938-0.9062-0.0312 (   463 PWs)   bands (ev):

     8.5940   9.0077  11.4043  11.4787  11.6195  14.4955  21.0785  25.2747
    26.1764  31.4120

          k =-0.1562-0.8438-0.0938 (   465 PWs)   bands (ev):

     8.7157   9.1221  11.0098  11.2998  11.5848  14.2107  22.4477  23.4927
    26.7787  32.0857

          k =-0.2188-0.7812-0.1562 (   467 PWs)   bands (ev):

     8.8749   9.2927  10.5407  11.0551  11.5654  13.9897  21.6618  24.2875
    27.6989  32.5848

          k =-0.2812-0.7188-0.2188 (   467 PWs)   bands (ev):

     8.9360   9.5392  10.2402  10.7889  11.5490  13.7646  20.0752  26.4130
    28.8849  33.1576

          k =-0.3438-0.6562-0.2812 (   464 PWs)   bands (ev):

     8.7861   9.8524  10.2776  10.5457  11.5334  13.4712  18.7779  28.7950
    30.2877  33.8486

          k =-0.4062-0.5938-0.3438 (   467 PWs)   bands (ev):

     8.5708  10.0702  10.3525  10.6684  11.5194  13.0744  17.8248  31.3179
    31.8835  34.5815

          k =-0.0312-0.8438 0.0312 (   461 PWs)   bands (ev):

     8.5479   9.0291  11.4480  11.5072  11.5610  13.4691  22.2166  26.2841
    26.6454  30.8593

          k =-0.0938-0.7812-0.0312 (   463 PWs)   bands (ev):

     8.5646   9.1186  11.1843  11.3833  11.4995  12.8604  23.7164  25.8558
    26.7920  31.6973

          k =-0.1562-0.7188-0.0938 (   467 PWs)   bands (ev):

     8.6168   9.2644  10.6738  11.1233  11.5051  12.6386  24.1912  25.5451
    27.6015  32.4693

          k =-0.2188-0.6562-0.1562 (   463 PWs)   bands (ev):

     8.6252   9.4683  10.2815  10.8514  11.5002  12.5158  22.5547  27.6060
    28.7000  33.0776

          k =-0.2812-0.5938-0.2188 (   464 PWs)   bands (ev):

     8.5114   9.7709  10.1668  10.6012  11.4854  12.3602  21.0993  29.7996
    30.1324  33.7713

          k =-0.3438-0.5312-0.2812 (   465 PWs)   bands (ev):

     8.3553  10.1095  10.3203  10.4068  11.4619  12.1375  19.8850  31.4467
    32.4378  34.5601

          k =-0.0312-0.7188 0.0312 (   464 PWs)   bands (ev):

     8.4217   9.1826  11.2428  11.3037  11.4299  11.8830  25.2397  27.1326
    27.5268  31.2214

          k =-0.0938-0.6562-0.0312 (   467 PWs)   bands (ev):

     8.2666   9.3025  10.7785  11.1638  11.3588  11.6671  26.7713  27.0712
    27.8593  32.2308

          k =-0.1562-0.5938-0.0938 (   467 PWs)   bands (ev):

     8.0830   9.4639  10.3786  10.9006  11.3620  11.6703  25.2816  28.7477
    29.1192  33.1198

          k =-0.2188-0.5312-0.1562 (   466 PWs)   bands (ev):

     7.9005   9.6708  10.2337  10.6571  11.3469  11.6370  23.7622  30.0114
    31.2923  33.8904

          k =-0.2812-0.4688-0.2188 (   467 PWs)   bands (ev):

     7.7900   9.9498  10.2383  10.4609  11.3098  11.5594  22.4263  31.4308
    33.5670  34.8356

          k =-0.0312-0.5938 0.0312 (   464 PWs)   bands (ev):

     7.8421   9.3987  10.7378  11.0497  11.1398  11.3264  28.3457  28.7523
    28.8399  31.8176

          k =-0.0938-0.5312-0.0312 (   468 PWs)   bands (ev):

     7.4211   9.5331  10.4932  10.8998  11.0508  11.3190  28.1450  29.2422
    30.6933  33.0533

          k =-0.1562-0.4688-0.0938 (   475 PWs)   bands (ev):

     7.0994   9.6881  10.3664  10.6863  11.0607  11.3186  26.6685  30.3497
    32.7520  34.2040

          k =-0.2188-0.4062-0.1562 (   477 PWs)   bands (ev):

     6.9448   9.8553  10.3423  10.5085  11.0587  11.2990  25.2624  31.6707
    34.4699  35.7407

          k =-0.0312-0.4688 0.0312 (   476 PWs)   bands (ev):

     6.8060   9.6464  10.5631  10.7807  10.8275  11.2216  29.9376  30.5209
    32.3046  32.7377

          k =-0.0938-0.4062-0.0312 (   477 PWs)   bands (ev):

     6.3483   9.7764  10.5008  10.6518  10.7935  11.1873  29.7385  30.9647
    33.9505  34.6130

          k =-0.1562-0.3438-0.0938 (   475 PWs)   bands (ev):

     6.1039   9.9013  10.4317  10.5111  10.8557  11.1571  28.3302  32.1636
    35.0348  37.2060

          k =-0.0312-0.3438 0.0312 (   477 PWs)   bands (ev):

     5.7735   9.8885  10.5336  10.5446  10.7176  11.1230  31.7439  32.5127
    33.8007  35.1510

          k =-0.0938-0.2812-0.0312 (   480 PWs)   bands (ev):

     5.4302   9.9946  10.4348  10.4490  10.8029  11.0817  31.5558  32.9112
    35.5083  37.0477

          k =-0.0312-0.2188 0.0312 (   487 PWs)   bands (ev):

     4.9899  10.0868  10.3676  10.3683  10.8573  11.0441  33.6809  34.7566
    35.2688  36.8415

          k =-0.0938 0.0938 0.0938 (   495 PWs)   bands (ev):

     4.7197  10.1810  10.2930  10.2930  10.9704  10.9704  33.5245  36.8547
    37.3280  37.3280

          k =-0.1562 0.1562 0.0312 (   483 PWs)   bands (ev):

     4.9894  10.1223  10.3356  10.3458  10.9053  11.0149  32.4665  33.9305
    37.7766  38.7749

          k =-0.2188 0.2188-0.0312 (   481 PWs)   bands (ev):

     5.5157  10.0302  10.3944  10.4199  10.8405  11.0862  30.3657  31.8271
    38.3341  39.4574

          k =-0.2812 0.2812-0.0938 (   477 PWs)   bands (ev):

     6.2632   9.9487  10.3893  10.4788  10.8430  11.2243  27.1945  31.1741
    37.9234  38.9383

          k =-0.3438 0.3438-0.1562 (   475 PWs)   bands (ev):

     7.1437   9.9508  10.3293  10.4455  10.9736  11.4379  24.1987  30.7906
    36.8890  37.6059

          k =-0.4062 0.4062-0.2188 (   473 PWs)   bands (ev):

     7.9437  10.1716  10.2474  10.3771  11.1616  11.7469  21.4544  30.6535
    35.8968  36.0988

          k =-0.4688 0.4688-0.2812 (   471 PWs)   bands (ev):

     8.3907  10.1664  10.3212  10.6303  11.3403  12.3022  19.0497  30.7726
    34.7952  35.1009

          k = 0.4688-0.4688 0.6562 (   463 PWs)   bands (ev):

     8.5331  10.1165  10.2952  10.9089  11.4706  13.1293  17.3024  31.1565
    33.7669  34.5401

          k = 0.4062-0.4062 0.5938 (   468 PWs)   bands (ev):

     8.5313  10.1068  10.3035  10.8736  11.5282  13.1118  17.3004  31.8021
    33.0377  34.2248

          k = 0.3438-0.3438 0.5312 (   468 PWs)   bands (ev):

     8.3855  10.1399  10.3425  10.5660  11.5054  12.2160  19.0448  32.6149
    32.6681  34.1775

          k = 0.2812-0.2812 0.4688 (   469 PWs)   bands (ev):

     7.9373  10.1102  10.2390  10.4001  11.4131  11.5530  21.4487  32.4938
    33.5301  34.5868

          k = 0.2188-0.2188 0.4062 (   474 PWs)   bands (ev):

     7.1400   9.9152  10.3232  10.4550  11.1695  11.2817  24.1930  32.6620
    34.0274  35.7675

          k = 0.1562-0.1562 0.3438 (   477 PWs)   bands (ev):

     6.2622   9.9155  10.4120  10.4765  10.9269  11.1569  27.1908  33.1043
    34.4300  37.3766

          k = 0.0938-0.0938 0.2812 (   478 PWs)   bands (ev):

     5.5160   9.9952  10.4298  10.4409  10.8273  11.0792  30.3925  33.8066
    34.8781  38.0682

          k =-0.0938 0.2188 0.0938 (   481 PWs)   bands (ev):

     5.1668  10.0795  10.3718  10.3756  10.8782  11.0327  31.3843  34.9570
    35.5876  38.6018

          k =-0.1562 0.2812 0.0312 (   478 PWs)   bands (ev):

     5.6022   9.9887  10.4191  10.4570  10.8171  11.0999  30.4344  31.8668
    36.8191  38.1784

          k =-0.2188 0.3438-0.0312 (   477 PWs)   bands (ev):

     6.2683   9.8909  10.3990  10.5603  10.7927  11.2406  28.4440  29.8975
    36.9579  37.7438

          k =-0.2812 0.4062-0.0938 (   474 PWs)   bands (ev):

     7.0986   9.8353  10.3111  10.5683  10.9135  11.4729  25.4106  29.3986
    35.3894  37.3284

          k =-0.3438 0.4688-0.1562 (   470 PWs)   bands (ev):

     7.9289   9.9114  10.1999  10.5100  11.1240  11.8271  22.5753  29.1830
    33.9004  36.7173

          k =-0.4062 0.5312-0.2188 (   468 PWs)   bands (ev):

     8.4737  10.0819  10.2224  10.4543  11.3200  12.4418  20.0233  29.2321
    32.6110  36.1369

          k = 0.5312-0.4062 0.7188 (   464 PWs)   bands (ev):

     8.6718  10.0192  10.3978  10.5464  11.4480  13.4095  17.9272  29.5494
    31.5648  35.6745

          k = 0.4688-0.3438 0.6562 (   463 PWs)   bands (ev):

     8.7039   9.9962  10.3955  10.6193  11.5002  13.9127  17.1439  30.1040
    30.8181  35.3867

          k = 0.4062-0.2812 0.5938 (   466 PWs)   bands (ev):

     8.6268  10.0204  10.3920  10.4689  11.4763  13.0374  18.5467  30.1773
    31.0973  35.2939

          k = 0.3438-0.2188 0.5312 (   468 PWs)   bands (ev):

     8.3291  10.0107  10.1702  10.4826  11.3650  12.1286  20.8315  29.9716
    32.1877  35.3907

          k = 0.2812-0.1562 0.4688 (   473 PWs)   bands (ev):

     7.6631   9.8322  10.2387  10.5404  11.1632  11.6085  23.4878  30.0186
    33.5169  35.6677

          k = 0.2188-0.0938 0.4062 (   478 PWs)   bands (ev):

     6.8088   9.8167  10.3550  10.5795  10.9341  11.3296  26.4038  30.3279
    34.9488  36.1582

          k = 0.1562-0.0312 0.3438 (   475 PWs)   bands (ev):

     6.0236   9.8935  10.4403  10.5475  10.7965  11.1648  29.5055  30.9123
    36.0040  36.8226

          k =-0.0938 0.3438 0.0938 (   478 PWs)   bands (ev):

     5.9402   9.8953  10.4704  10.5211  10.8104  11.1337  29.4600  32.7125
    34.1985  36.7520

          k =-0.1562 0.4062 0.0312 (   474 PWs)   bands (ev):

     6.5069   9.7865  10.4241  10.6521  10.8363  11.2416  28.6374  30.0162
    34.6782  35.5897

          k =-0.2188 0.4688-0.0312 (   472 PWs)   bands (ev):

     7.2469   9.6966  10.3036  10.7635  10.9178  11.4791  26.7848  28.2268
    33.0738  36.3168

          k =-0.2812 0.5312-0.0938 (   470 PWs)   bands (ev):

     8.0341   9.6740  10.1667  10.7266  11.1449  11.8871  23.9116  27.8919
    31.4935  36.1724

          k =-0.3438 0.5938-0.1562 (   472 PWs)   bands (ev):

     8.6287   9.7718  10.0756  10.6635  11.3448  12.6025  21.2480  27.8566
    30.1248  35.9928

          k = 0.5938-0.3438 0.7812 (   467 PWs)   bands (ev):

     8.8854   9.8252  10.1862  10.6040  11.4572  13.7175  18.9081  28.0877
    29.0095  35.9435

          k = 0.5312-0.2812 0.7188 (   468 PWs)   bands (ev):

     8.9541   9.8085  10.3229  10.5620  11.4827  14.7987  17.3555  28.0265
    28.7213  36.0636

          k = 0.4688-0.2188 0.6562 (   467 PWs)   bands (ev):

     8.9325   9.8370  10.2473  10.5753  11.4318  14.1616  18.2478  27.4438
    29.4946  36.3632

          k = 0.4062-0.1562 0.5938 (   469 PWs)   bands (ev):

     8.7692   9.8752  10.0434  10.6251  11.3047  12.9850  20.4295  27.1077
    30.5561  36.8183

          k = 0.3438-0.0938 0.5312 (   473 PWs)   bands (ev):

     8.2861   9.7437  10.0992  10.6889  11.1060  12.1635  22.9994  27.0499
    31.8612  37.3578

          k = 0.2812-0.0312 0.4688 (   472 PWs)   bands (ev):

     7.5210   9.7238  10.2365  10.7524  10.8809  11.6660  25.7925  27.3011
    33.3856  37.7945

          k = 0.2188 0.0312 0.4062 (   474 PWs)   bands (ev):

     6.7391   9.7979  10.3611  10.6564  10.8296  11.3471  27.5811  29.0285
    35.0555  36.9673

          k =-0.0938 0.4688 0.0938 (   476 PWs)   bands (ev):

     6.9553   9.6665  10.4356  10.7194  10.9985  11.2574  27.7802  30.7284
    32.4341  33.6030

          k =-0.1562 0.5312 0.0312 (   471 PWs)   bands (ev):

     7.5582   9.5572  10.3706  10.8920  11.0695  11.4549  27.0917  28.4112
    30.8874  34.3076

          k =-0.2188 0.5938-0.0312 (   466 PWs)   bands (ev):

     8.2068   9.4891  10.2571  11.0036  11.1629  11.9224  25.3991  26.8336
    29.2440  35.2456

          k =-0.2812 0.6562-0.0938 (   468 PWs)   bands (ev):

     8.7371   9.4946  10.1488  10.9339  11.3663  12.7452  22.7060  26.6696
    27.8117  35.3211

          k = 0.6562-0.2812 0.8438 (   470 PWs)   bands (ev):

     9.0352   9.5571  10.1080  10.8516  11.4773  13.9792  20.2237  26.4964
    26.9450  35.4070

          k = 0.5938-0.2188 0.7812 (   467 PWs)   bands (ev):

     9.1771   9.5831  10.1368  10.7783  11.4933  15.4640  18.1438  25.5903
    27.3529  35.6678

          k = 0.5312-0.1562 0.7188 (   470 PWs)   bands (ev):

     9.2361   9.6167  10.0927  10.7481  11.4271  15.5207  18.1251  24.8927
    28.0928  36.1470

          k = 0.4688-0.0938 0.6562 (   471 PWs)   bands (ev):

     9.1795   9.7202   9.9131  10.7756  11.2907  14.1135  20.2043  24.4732
    29.0953  36.8612

          k = 0.4062-0.0312 0.5938 (   471 PWs)   bands (ev):

     8.8800   9.6993   9.9198  10.8258  11.1051  12.9637  22.6142  24.4071
    30.3362  37.7845

          k = 0.3438 0.0312 0.5312 (   470 PWs)   bands (ev):

     8.2748   9.6869  10.0873  10.8022  10.9798  12.1743  24.1391  25.7537
    31.7953  38.3322

          k = 0.2812 0.0938 0.4688 (   473 PWs)   bands (ev):

     7.5701   9.7587  10.2377  10.6384  11.0185  11.6463  24.6253  28.6101
    33.4340  36.7078

          k =-0.0938 0.5938 0.0938 (   467 PWs)   bands (ev):

     7.9666   9.4305  10.5050  10.9492  11.3856  11.4404  26.3629  28.8922
    29.0603  32.4952

          k =-0.1562 0.6562 0.0312 (   467 PWs)   bands (ev):

     8.3786   9.3383  10.5452  11.1502  11.3210  11.9846  25.8210  26.9728
    27.3415  33.4175

          k =-0.2188 0.7188-0.0312 (   467 PWs)   bands (ev):

     8.7169   9.3044  10.4721  11.2241  11.3765  12.9083  24.3123  25.5515
    25.9219  34.4752

          k = 0.7188-0.2188 0.9062 (   468 PWs)   bands (ev):

     8.9602   9.3374  10.3644  11.1141  11.5054  14.2208  21.8166  24.4150
    25.8427  34.7491

          k = 0.6562-0.1562 0.8438 (   468 PWs)   bands (ev):

     9.1447   9.4047  10.2465  11.0044  11.5313  15.8392  19.5212  23.4139
    26.2204  35.0299

          k = 0.5938-0.0938 0.7812 (   467 PWs)   bands (ev):

     9.3245   9.4546  10.1000  10.9214  11.4713  17.0494  18.1486  22.6897
    26.8974  35.4834

          k = 0.5312-0.0312 0.7188 (   471 PWs)   bands (ev):

     9.4399   9.5320   9.9034  10.8817  11.3533  15.5292  19.9154  22.3719
    27.8389  36.1374

          k = 0.4688 0.0312 0.6562 (   474 PWs)   bands (ev):

     9.2634   9.7168   9.7884  10.8454  11.2328  14.0920  21.2084  23.2780
    29.0166  36.9401

          k = 0.4062 0.0938 0.5938 (   472 PWs)   bands (ev):

     8.8369   9.7716   9.9550  10.7339  11.1970  12.9707  21.5268  25.6662
    30.4092  37.4352

          k = 0.3438 0.1562 0.5312 (   472 PWs)   bands (ev):

     8.3055   9.8572  10.1227  10.5785  11.2402  12.1452  21.8746  28.4831
    31.9925  36.3475

          k =-0.0938 0.7188 0.0938 (   464 PWs)   bands (ev):

     8.5229   9.2233  10.8833  11.1744  11.5008  12.3392  25.1766  25.4728
    27.7627  31.8877

          k =-0.1562 0.7812 0.0312 (   466 PWs)   bands (ev):

     8.6563   9.1631  10.9147  11.3506  11.4847  13.2238  23.8436  24.9043
    26.1599  32.8271

          k = 0.7812-0.1562 0.9688 (   468 PWs)   bands (ev):

     8.7957   9.1720  10.7877  11.3209  11.5537  14.5023  22.5764  23.5990
    25.0708  33.9949

          k = 0.7188-0.0938 0.9062 (   470 PWs)   bands (ev):

     8.9507   9.2464  10.5929  11.1937  11.5929  16.0353  21.2004  21.7314
    25.3293  34.4391

          k = 0.6562-0.0312 0.8438 (   470 PWs)   bands (ev):

     9.1288   9.3596  10.3458  11.0710  11.5488  17.6350  19.1092  21.1856
    25.9299  34.8693

          k = 0.5938 0.0312 0.7812 (   467 PWs)   bands (ev):

     9.3294   9.4539  10.0915  10.9570  11.4603  17.2021  18.7429  21.6793
    26.8068  35.4447

          k = 0.5312 0.0938 0.7188 (   469 PWs)   bands (ev):

     9.3608   9.5556   9.9829  10.8302  11.3845  15.5443  19.0326  23.4807
    27.9233  36.1434

          k = 0.4688 0.1562 0.6562 (   467 PWs)   bands (ev):

     9.0591   9.7665  10.0720  10.6772  11.3653  14.1458  19.1626  25.9081
    29.2536  36.6788

          k = 0.4062 0.2188 0.5938 (   469 PWs)   bands (ev):

     8.6953   9.9581  10.2084  10.5237  11.4018  13.0071  19.4255  28.6282
    30.7797  36.0681

          k =-0.0938 0.8438 0.0938 (   462 PWs)   bands (ev):

     8.6344   9.0759  11.2299  11.3478  11.5881  13.8780  22.3351  24.5121
    26.8950  31.5269

          k = 0.8438-0.0938 1.0312 (   463 PWs)   bands (ev):

     8.6746   9.0573  11.1798  11.4087  11.6180  14.8699  21.1797  24.3467
    25.5883  32.5087

          k = 0.7812-0.0312 0.9688 (   465 PWs)   bands (ev):

     8.7784   9.1119  10.9684  11.3215  11.6502  15.9635  20.5286  23.2663
    24.7484  33.7918

          k = 0.7188 0.0312 0.9062 (   471 PWs)   bands (ev):

     8.9392   9.2286  10.6492  11.2018  11.6140  16.7180  20.6461  21.3078
    25.2262  34.3778

          k = 0.6562 0.0938 0.8438 (   469 PWs)   bands (ev):

     9.1391   9.3723  10.3096  11.0494  11.5430  16.8323  19.2868  22.0923
    26.0269  34.9227

          k = 0.5938 0.1562 0.7812 (   465 PWs)   bands (ev):

     9.2743   9.4971  10.1157  10.8583  11.4856  16.3902  17.9605  24.0630
    27.0788  35.5591

          k = 0.5312 0.2188 0.7188 (   471 PWs)   bands (ev):

     9.0969   9.7045  10.2086  10.6544  11.4633  15.3139  17.5112  26.4303
    28.3501  36.1299

          k = 0.4688 0.2812 0.6562 (   463 PWs)   bands (ev):

     8.8121   9.9173  10.4241  10.4877  11.4788  14.1072  17.5451  29.0258
    29.8414  35.9165

          k =-0.0938-1.0312 0.0938 (   463 PWs)   bands (ev):

     8.6303   9.0090  11.3782  11.4286  11.6316  15.2584  20.3684  24.1718
    26.5111  31.3769

          k =-0.1562-0.9688 0.0312 (   464 PWs)   bands (ev):

     8.6691   9.0354  11.2457  11.4042  11.6502  15.4470  20.4084  24.2332
    25.4718  32.4458

          k =-0.2188-0.9062-0.0312 (   465 PWs)   bands (ev):

     8.7869   9.1321  10.9031  11.3265  11.6166  15.3509  21.3351  23.3773
    24.8563  33.8593

          k =-0.2812-0.8438-0.0938 (   472 PWs)   bands (ev):

     8.9646   9.2826  10.4919  11.1676  11.5551  15.1256  21.4952  22.9389
    25.5344  34.5624

          k =-0.3438-0.7812-0.1562 (   469 PWs)   bands (ev):

     9.1188   9.4665  10.1726  10.9367  11.5111  14.8654  19.8314  24.9207
    26.5119  35.1913

          k =-0.4062-0.7188-0.2188 (   466 PWs)   bands (ev):

     9.0459   9.6963  10.1612  10.6909  11.4861  14.5480  18.4762  27.1848
    27.7514  35.8011

          k =-0.0938-0.9062 0.0938 (   464 PWs)   bands (ev):

     8.6346   9.0315  11.3289  11.4014  11.6165  14.6912  21.1279  24.2860
    26.6399  31.4266

          k =-0.1562-0.8438 0.0312 (   465 PWs)   bands (ev):

     8.6770   9.1004  11.0670  11.3957  11.5588  14.0508  22.3967  24.5713
    25.8189  32.6352

          k =-0.2188-0.7812-0.0312 (   468 PWs)   bands (ev):

     8.7850   9.2301  10.6373  11.2902  11.4700  13.6518  23.8548  24.1020
    25.3935  34.1997

          k =-0.2812-0.7188-0.0938 (   467 PWs)   bands (ev):

     8.9007   9.4097  10.2372  11.0333  11.4441  13.4119  22.2199  25.9522
    26.3219  35.0012

          k =-0.3438-0.6562-0.1562 (   471 PWs)   bands (ev):

     8.8746   9.6648  10.0718  10.7575  11.4237  13.2168  20.6969  27.2979
    28.3326  35.6757

          k =-0.0938-0.7812 0.0938 (   463 PWs)   bands (ev):

     8.6097   9.1405  11.0803  11.2706  11.5488  13.0518  23.7761  24.8488
    27.2714  31.6796

          k =-0.1562-0.7188 0.0312 (   465 PWs)   bands (ev):

     8.5749   9.2434  10.7305  11.2655  11.4076  12.5123  25.2544  25.5093
    26.6117  33.0868

          k =-0.2188-0.6562-0.0312 (   466 PWs)   bands (ev):

     8.5364   9.3919  10.3309  11.1235  11.2766  12.3281  24.8164  26.2412
    27.4472  34.8233

          k =-0.2812-0.5938-0.0938 (   468 PWs)   bands (ev):

     8.4407   9.5847  10.1277  10.8279  11.2662  12.2405  23.2711  27.2460
    29.6115  35.7109

          k =-0.0938-0.6562 0.0938 (   463 PWs)   bands (ev):

     8.3207   9.3211  10.6687  11.0652  11.4458  11.8057  25.7599  27.1112
    28.3616  32.1564

          k =-0.1562-0.5938 0.0312 (   467 PWs)   bands (ev):

     8.0304   9.4442  10.4158  11.0218  11.2080  11.6486  26.4203  27.7051
    29.0254  33.8228

          k =-0.2188-0.5312-0.0312 (   467 PWs)   bands (ev):

     7.7551   9.5921  10.2574  10.8804  11.0372  11.6571  26.0565  27.4946
    31.1269  35.7433

          k =-0.0938-0.5312 0.0938 (   469 PWs)   bands (ev):

     7.4883   9.5471  10.4341  10.8323  11.1855  11.3221  27.0372  29.8516
    30.7191  32.9306

          k =-0.1562-0.4688 0.0312 (   474 PWs)   bands (ev):

     7.0306   9.6729  10.3870  10.7676  10.9354  11.3333  27.8319  29.1815
    32.8024  34.8809

          k =-0.0938-0.4062 0.0938 (   477 PWs)   bands (ev):

     6.4270   9.7841  10.4645  10.6147  10.8684  11.1938  28.5886  31.6842
    33.5048  35.0080

          k =-0.1562 0.1562 0.1562 (   489 PWs)   bands (ev):

     5.2534  10.0986  10.3590  10.3590  10.9645  10.9645  30.1862  36.5481
    36.5481  36.5951

          k =-0.2188 0.2188 0.0938 (   477 PWs)   bands (ev):

     5.6000  10.0336  10.3923  10.4096  10.8758  11.0707  29.1908  33.1398
    37.6998  38.3558

          k =-0.2812 0.2812 0.0312 (   479 PWs)   bands (ev):

     6.1868   9.9335  10.3919  10.5227  10.7778  11.2407  28.3760  29.8484
    38.7189  39.5453

          k =-0.3438 0.3438-0.0312 (   475 PWs)   bands (ev):

     6.9643   9.8497  10.3279  10.6235  10.7457  11.4977  26.5170  28.0257
    37.6339  37.7984

          k =-0.4062 0.4062-0.0938 (   469 PWs)   bands (ev):

     7.8098   9.8541  10.2207  10.5564  10.9276  11.8618  23.6395  27.6902
    35.9693  36.3174

          k =-0.4688 0.4688-0.1562 (   465 PWs)   bands (ev):

     8.4596  10.0570  10.1024  10.4888  11.1405  12.4274  20.9807  27.6539
    34.3811  35.2423

          k = 0.4688-0.4688 0.7812 (   468 PWs)   bands (ev):

     8.7328  10.0022  10.3745  10.4498  11.3326  13.3428  18.6715  27.8909
    33.0641  34.4256

          k = 0.4062-0.4062 0.7188 (   467 PWs)   bands (ev):

     8.7908   9.9419  10.4446  10.5111  11.4726  14.2371  17.2106  28.4011
    32.0421  33.8611

          k = 0.3438-0.3438 0.6562 (   466 PWs)   bands (ev):

     8.7472   9.9261  10.4117  10.4713  11.5383  13.6401  18.0226  29.1779
    31.3335  33.5327

          k = 0.2812-0.2812 0.5938 (   470 PWs)   bands (ev):

     8.5498   9.8954  10.2117  10.5215  11.5219  12.5102  20.1448  30.2026
    30.9484  33.4227

          k = 0.2188-0.2188 0.5312 (   463 PWs)   bands (ev):

     8.0294   9.7561  10.2111  10.5797  11.4349  11.6986  22.7036  30.8861
    31.4303  33.5311

          k = 0.1562-0.1562 0.4688 (   471 PWs)   bands (ev):

     7.2336   9.7191  10.3286  10.6215  11.1921  11.3093  25.5390  31.1365
    32.6884  33.9705

          k =-0.1562 0.2812 0.1562 (   479 PWs)   bands (ev):

     5.8522   9.9961  10.4090  10.4243  10.9035  11.0840  28.1206  34.1957
    35.1155  38.9011

          k =-0.2188 0.3438 0.0938 (   479 PWs)   bands (ev):

     6.3445   9.9048  10.3946  10.5105  10.8658  11.2256  27.2637  31.2092
    36.2692  37.5696

          k =-0.2812 0.4062 0.0312 (   475 PWs)   bands (ev):

     7.0375   9.8060  10.3119  10.6641  10.7961  11.4931  26.5855  28.0795
    35.3901  38.3566

          k =-0.3438 0.4688-0.0312 (   472 PWs)   bands (ev):

     7.8382   9.7509  10.1831  10.7190  10.8677  11.8873  24.8624  26.4350
    33.7507  38.2304

          k =-0.4062 0.5312-0.0938 (   474 PWs)   bands (ev):

     8.5378   9.8215  10.0426  10.6492  11.0900  12.4890  22.1582  26.2636
    32.2840  37.0403

          k = 0.5312-0.4062 0.8438 (   467 PWs)   bands (ev):

     8.8884   9.8957  10.0886  10.5969  11.2885  13.4405  19.6911  26.4112
    31.0356  36.0700

          k = 0.4688-0.3438 0.7812 (   467 PWs)   bands (ev):

     8.9746   9.8149  10.2888  10.5704  11.4308  14.6365  17.7270  26.8393
    30.0304  35.3574

          k = 0.4062-0.2812 0.7188 (   467 PWs)   bands (ev):

     8.9536   9.7825  10.2882  10.5904  11.5035  14.6015  17.7249  27.5352
    29.2951  34.8995

          k = 0.3438-0.2188 0.6562 (   468 PWs)   bands (ev):

     8.8307   9.7592  10.1613  10.6428  11.4954  13.3262  19.6790  28.4293
    28.9061  34.6748

          k = 0.2812-0.1562 0.5938 (   467 PWs)   bands (ev):

     8.4732   9.6602  10.1427  10.7044  11.3951  12.2775  22.1456  28.6131
    29.7662  34.6522

          k = 0.2188-0.0938 0.5312 (   470 PWs)   bands (ev):

     7.8054   9.6174  10.2495  10.7585  11.1920  11.6457  24.8934  28.7543
    31.1869  34.7842

          k =-0.1562 0.4062 0.1562 (   476 PWs)   bands (ev):

     6.7300   9.8216  10.3789  10.5425  11.0223  11.2332  26.3302  32.0826
    33.7314  35.4555

          k =-0.2188 0.4688 0.0938 (   473 PWs)   bands (ev):

     7.3079   9.7194  10.2968  10.6623  11.0527  11.4596  25.6134  29.5086
    33.1021  35.3687

          k =-0.2812 0.5312 0.0312 (   469 PWs)   bands (ev):

     7.9999   9.6362  10.1625  10.8544  10.9967  11.8975  25.0690  26.5961
    31.4283  37.2580

          k =-0.3438 0.5938-0.0312 (   469 PWs)   bands (ev):

     8.6550   9.6188  10.0077  10.8999  11.1029  12.5704  23.4873  25.1504
    29.9038  38.1975

          k = 0.5938-0.3438 0.9062 (   473 PWs)   bands (ev):

     9.0641   9.6873   9.9144  10.8234  11.2993  13.5973  20.9702  25.1485
    28.5998  37.7102

          k = 0.5312-0.2812 0.8438 (   472 PWs)   bands (ev):

     9.2069   9.6399  10.0446  10.7586  11.4274  14.9713  18.7176  25.4847
    27.5352  37.2579

          k = 0.4688-0.2188 0.7812 (   473 PWs)   bands (ev):

     9.2196   9.6024  10.1148  10.7450  11.4768  15.7746  17.6870  26.0821
    26.7465  36.9406

          k = 0.4062-0.1562 0.7188 (   469 PWs)   bands (ev):

     9.1355   9.6280  10.0364  10.7994  11.4455  14.4515  19.4251  26.1306
    27.0429  36.7854

          k = 0.3438-0.0938 0.6562 (   470 PWs)   bands (ev):

     8.9102   9.5904  10.0100  10.8816  11.3261  13.1454  21.8042  25.8899
    28.1658  36.7756

          k = 0.2812-0.0312 0.5938 (   467 PWs)   bands (ev):

     8.4217   9.5478  10.1200  10.9651  11.1217  12.2277  24.4172  25.9662
    29.5374  36.7740

          k =-0.1562 0.5312 0.1562 (   469 PWs)   bands (ev):

     7.7363   9.6122  10.2942  10.7120  11.3816  11.4389  24.8182  30.2718
    31.0065  33.2510

          k =-0.2188 0.5938 0.0938 (   467 PWs)   bands (ev):

     8.2461   9.5151  10.2465  10.8651  11.3164  11.9400  24.2457  28.0645
    29.3213  34.3065

          k =-0.2812 0.6562 0.0312 (   468 PWs)   bands (ev):

     8.7268   9.4629  10.1408  11.0706  11.2427  12.7007  23.8405  25.4129
    27.7259  36.3538

          k = 0.6562-0.2812 0.9688 (   471 PWs)   bands (ev):

     9.0712   9.4860  10.0236  11.0646  11.3461  13.8059  22.4132  24.1814
    26.3594  37.6046

          k = 0.5938-0.2188 0.9062 (   471 PWs)   bands (ev):

     9.2592   9.5311   9.9689  10.9615  11.4694  15.2606  20.0948  24.3450
    25.2437  37.7858

          k = 0.5312-0.1562 0.8438 (   472 PWs)   bands (ev):

     9.3940   9.4868   9.9716  10.8919  11.5087  16.8208  18.1748  24.2994
    24.9437  37.9961

          k = 0.4688-0.0938 0.7812 (   472 PWs)   bands (ev):

     9.3810   9.5477   9.8966  10.9045  11.4626  15.8493  19.3330  23.7219
    25.7302  38.3401

          k = 0.4062-0.0312 0.7188 (   471 PWs)   bands (ev):

     9.2438   9.6001   9.8422  10.9749  11.3428  14.3200  21.5293  23.4949
    26.7897  38.7948

          k = 0.3438 0.0312 0.6562 (   469 PWs)   bands (ev):

     8.9301   9.5503   9.9777  10.9929  11.2269  13.1106  22.9104  24.6264
    28.0879  37.9088

          k =-0.1562 0.6562 0.1562 (   465 PWs)   bands (ev):

     8.5104   9.4016  10.4011  10.9156  11.5022  12.2507  23.5957  27.3949
    28.8105  32.4801

          k =-0.2188 0.7188 0.0938 (   469 PWs)   bands (ev):

     8.7471   9.3268  10.4485  11.0829  11.4794  13.0023  23.1796  25.7457
    26.9991  33.5993

          k = 0.7188-0.2188 1.0312 (   465 PWs)   bands (ev):

     8.9395   9.3197  10.3723  11.2052  11.4608  14.1248  22.9312  24.2593
    24.6815  35.7211

          k = 0.6562-0.1562 0.9688 (   472 PWs)   bands (ev):

     9.0855   9.3881  10.2465  11.1238  11.5477  15.5690  21.6801  23.1167
    23.6533  37.1370

          k = 0.5938-0.0938 0.9062 (   467 PWs)   bands (ev):

     9.2083   9.4942  10.0942  11.0112  11.5860  17.2581  19.5580  22.3112
    23.9509  37.6441

          k = 0.5312-0.0312 0.8438 (   467 PWs)   bands (ev):

     9.3183   9.6053   9.9055  10.9523  11.5446  17.5067  19.1347  21.8710
    24.6632  38.1631

          k = 0.4688 0.0312 0.7812 (   472 PWs)   bands (ev):

     9.3700   9.6539   9.7767  10.9465  11.4521  15.8071  20.2686  22.5793
    25.6464  38.6716

          k = 0.4062 0.0938 0.7188 (   471 PWs)   bands (ev):

     9.2069   9.5955   9.9228  10.9027  11.3902  14.3671  20.4915  24.7110
    26.8702  37.8119

          k =-0.1562 0.7812 0.1562 (   466 PWs)   bands (ev):

     8.7718   9.2276  10.7255  11.1212  11.5740  13.6384  22.6858  24.0838
    27.7493  32.0254

          k = 0.7812-0.1562 1.0938 (   468 PWs)   bands (ev):

     8.8291   9.1914  10.7518  11.2431  11.5703  14.6362  22.3791  22.7485
    26.2366  33.1743

          k = 0.7188-0.0938 1.0312 (   470 PWs)   bands (ev):

     8.9200   9.2326  10.6182  11.2276  11.6156  15.9048  21.5432  22.4228
    24.1112  35.3704

          k = 0.6562-0.0312 0.9688 (   469 PWs)   bands (ev):

     9.0396   9.3440  10.3987  11.1169  11.6503  17.2428  20.8861  21.4020
    23.3215  36.9293

          k = 0.5938 0.0312 0.9062 (   466 PWs)   bands (ev):

     9.1856   9.4903  10.1296  11.0152  11.6130  18.0931  19.4024  21.3519
    23.8576  37.6052

          k = 0.5312 0.0938 0.8438 (   468 PWs)   bands (ev):

     9.3495   9.5544   9.9332  10.9323  11.5322  17.4257  18.4285  22.9250
    24.7513  38.1212

          k = 0.4688 0.1562 0.7812 (   474 PWs)   bands (ev):

     9.3322   9.5301  10.0102  10.8325  11.4743  15.8881  18.3701  25.1299
    25.9103  37.7180

          k =-0.1562-1.0938 0.1562 (   469 PWs)   bands (ev):

     8.7851   9.1240  10.9749  11.2807  11.5913  15.3567  21.3038  22.2186
    27.1385  31.7895

          k =-0.2188-1.0312 0.0938 (   469 PWs)   bands (ev):

     8.8130   9.1312  10.9206  11.2965  11.6160  16.1286  20.5541  22.1739
    25.9035  32.9980

          k =-0.2812-0.9688 0.0312 (   470 PWs)   bands (ev):

     8.9073   9.2146  10.6797  11.2218  11.6502  16.5689  20.6939  22.3082
    24.0103  35.3005

          k =-0.3438-0.9062-0.0312 (   470 PWs)   bands (ev):

     9.0574   9.3589  10.3438  11.1227  11.6148  16.5134  21.4340  21.8743
    23.4193  36.9989

          k =-0.4062-0.8438-0.0938 (   472 PWs)   bands (ev):

     9.2433   9.5039  10.0341  10.9962  11.5361  16.2454  19.7841  23.6315
    24.1636  37.7125

          k =-0.1562-0.9688 0.1562 (   465 PWs)   bands (ev):

     8.7786   9.1030  11.0277  11.3209  11.5887  15.9739  20.5075  22.0964
    27.0142  31.7435

          k =-0.2188-0.9062 0.0938 (   466 PWs)   bands (ev):

     8.8212   9.1514  10.8609  11.2818  11.5995  15.5003  21.3637  22.2936
    26.0152  33.0564

          k =-0.2812-0.8438 0.0312 (   468 PWs)   bands (ev):

     8.9373   9.2680  10.5092  11.2267  11.5502  15.0122  22.5801  22.8776
    24.3153  35.5105

          k =-0.3438-0.7812-0.0312 (   466 PWs)   bands (ev):

     9.1038   9.4309  10.1284  11.1075  11.4554  14.6391  22.0014  23.8039
    24.7456  37.3412

          k =-0.1562-0.8438 0.1562 (   466 PWs)   bands (ev):

     8.7896   9.1657  10.8717  11.2106  11.5886  14.5009  22.2940  22.6910
    27.3848  31.8825

          k =-0.2188-0.7812 0.0938 (   467 PWs)   bands (ev):

     8.8167   9.2505  10.6072  11.1753  11.5308  13.7694  22.7669  24.1478
    26.5645  33.3541

          k =-0.2812-0.7188 0.0312 (   466 PWs)   bands (ev):

     8.8880   9.3856  10.2353  11.1539  11.3561  13.3381  23.3437  24.9306
    26.0136  36.0023

          k =-0.1562-0.7188 0.1562 (   466 PWs)   bands (ev):

     8.6956   9.3075  10.5552  11.0208  11.5451  12.8721  23.1007  25.6853
    28.2267  32.2223

          k =-0.2188-0.6562 0.0938 (   467 PWs)   bands (ev):

     8.5683   9.4166  10.3147  10.9760  11.4105  12.3869  23.6732  27.3165
    27.6626  33.9146

          k =-0.1562-0.5938 0.1562 (   466 PWs)   bands (ev):

     8.1826   9.5049  10.3101  10.8112  11.4469  11.7813  24.1694  29.1826
    29.4944  32.8115

          k =-0.2188 0.2188 0.2188 (   483 PWs)   bands (ev):

     6.0126  10.0309  10.3905  10.3905  11.0163  11.0163  26.9749  35.9083
    35.9083  36.2196

          k =-0.2812 0.2812 0.1562 (   477 PWs)   bands (ev):

     6.4135   9.9786  10.3839  10.4276  10.9362  11.1950  26.0486  32.6012
    37.1342  37.7594

          k =-0.3438 0.3438 0.0938 (   471 PWs)   bands (ev):

     7.0255   9.8822  10.3288  10.5294  10.8567  11.4772  25.3419  29.3512
    37.3507  37.7814

          k =-0.4062 0.4062 0.0312 (   475 PWs)   bands (ev):

     7.7783   9.7960  10.2138  10.6541  10.8185  11.8845  24.7922  26.3789
    35.9218  36.4070

          k =-0.4688 0.4688-0.0312 (   473 PWs)   bands (ev):

     8.5123   9.7879  10.0617  10.6655  10.9480  12.4766  23.1971  24.9277
    34.1756  35.3038

          k = 0.4688-0.4688 0.9062 (   469 PWs)   bands (ev):

     8.9588   9.9026   9.9536  10.6386  11.1514  13.3762  20.6890  24.9092
    32.6535  34.3690

          k = 0.4062-0.4062 0.8438 (   465 PWs)   bands (ev):

     9.0750   9.7761  10.1768  10.6331  11.3424  14.6166  18.4651  25.2341
    31.3936  33.6564

          k = 0.3438-0.3438 0.7812 (   461 PWs)   bands (ev):

     9.0512   9.6948  10.2661  10.6548  11.4843  15.2890  17.5033  25.8414
    30.4269  33.1653

          k = 0.2812-0.2812 0.7188 (   466 PWs)   bands (ev):

     8.9467   9.6338  10.2423  10.6997  11.5522  14.0244  19.1491  26.7136
    29.7793  32.8781

          k = 0.2188-0.2188 0.6562 (   465 PWs)   bands (ev):

     8.6955   9.5491  10.2344  10.7576  11.5360  12.7199  21.5093  27.8341
    29.4672  32.7701

          k =-0.2188 0.3438 0.2188 (   477 PWs)   bands (ev):

     6.7120   9.9715  10.3690  10.4173  11.0500  11.1937  25.0469  33.6716
    34.7072  37.3753

          k =-0.2812 0.4062 0.1562 (   474 PWs)   bands (ev):

     7.2167   9.8969  10.3083  10.4837  11.0414  11.4339  24.2685  30.8193
    35.3051  36.4295

          k =-0.3438 0.4688 0.0938 (   470 PWs)   bands (ev):

     7.8702   9.8028  10.1893  10.6106  10.9918  11.8670  23.7079  27.7445
    33.8020  37.5734

          k =-0.4062 0.5312 0.0312 (   474 PWs)   bands (ev):

     8.5558   9.7405  10.0261  10.7404  10.9917  12.4992  23.2702  24.9841
    32.2181  37.2190

          k = 0.5312-0.4062 0.9688 (   472 PWs)   bands (ev):

     9.0690   9.7833   9.8499  10.7701  11.1242  13.4254  21.7998  23.7458
    30.8106  36.1848

          k = 0.4688-0.3438 0.9062 (   469 PWs)   bands (ev):

     9.2471   9.6791   9.9903  10.7599  11.3016  14.7058  19.5072  23.8753
    29.6155  35.2908

          k = 0.4062-0.2812 0.8438 (   466 PWs)   bands (ev):

     9.2230   9.5784  10.1503  10.7749  11.4440  16.0096  17.7421  24.3738
    28.6611  34.6303

          k = 0.3438-0.2188 0.7812 (   466 PWs)   bands (ev):

     9.1095   9.5250  10.2054  10.8293  11.5210  15.0565  18.8428  25.1528
    27.9774  34.2021

          k = 0.2812-0.1562 0.7188 (   468 PWs)   bands (ev):

     8.9194   9.4609  10.2394  10.9033  11.5136  13.5564  21.1060  26.1829
    27.5952  33.9800

          k =-0.2188 0.4688 0.2188 (   468 PWs)   bands (ev):

     7.5908   9.8432  10.2623  10.5095  11.3633  11.3815  23.4119  31.7319
    33.0598  34.2756

          k =-0.2812 0.5312 0.1562 (   469 PWs)   bands (ev):

     8.0966   9.7529  10.1744  10.6152  11.2920  11.8734  22.7799  29.2841
    31.6216  35.1081

          k =-0.3438 0.5938 0.0938 (   469 PWs)   bands (ev):

     8.6457   9.6724  10.0297  10.7832  11.2227  12.5795  22.3641  26.4312
    29.9768  37.0708

          k = 0.5938-0.3438 1.0312 (   471 PWs)   bands (ev):

     9.1195   9.6507   9.8455  10.9098  11.2246  13.5696  22.0322  23.9109
    28.5226  38.3497

          k = 0.5312-0.2812 0.9688 (   471 PWs)   bands (ev):

     9.3784   9.6410   9.7749  10.9069  11.3450  14.8908  20.6956  22.8903
    27.2893  37.7762

          k = 0.4688-0.2188 0.9062 (   470 PWs)   bands (ev):

     9.4424   9.4628   9.9631  10.8894  11.4632  16.4759  18.6520  23.1657
    26.2918  37.0942

          k = 0.4062-0.1562 0.8438 (   470 PWs)   bands (ev):

     9.2773   9.4754  10.0741  10.9359  11.5163  16.3638  18.7531  23.8270
    25.5534  36.5977

          k = 0.3438-0.0938 0.7812 (   470 PWs)   bands (ev):

     9.1128   9.4386  10.1447  11.0386  11.4838  14.7181  20.9239  24.7175
    25.1473  36.2834

          k =-0.2188 0.5938 0.2188 (   465 PWs)   bands (ev):

     8.4113   9.6559  10.1960  10.6634  11.4933  12.1392  22.0688  29.6194
    30.1295  33.0944

          k =-0.2812 0.6562 0.1562 (   464 PWs)   bands (ev):

     8.7524   9.5593  10.1640  10.8028  11.4671  12.8402  21.5867  27.8061
    28.1898  34.2792

          k = 0.6562-0.2812 1.0938 (   469 PWs)   bands (ev):

     9.0604   9.5077  10.0540  10.9706  11.4121  13.8652  21.3228  25.4214
    26.4475  36.5074

          k = 0.5938-0.2188 1.0312 (   469 PWs)   bands (ev):

     9.2564   9.5598   9.9121  11.0139  11.4526  15.1978  21.1120  23.1559
    25.1529  38.9114

          k = 0.5312-0.1562 0.9688 (   468 PWs)   bands (ev):

     9.3054   9.6823   9.8130  10.9654  11.5449  16.8151  19.9362  22.3368
    24.1139  39.5753

          k = 0.4688-0.0938 0.9062 (   470 PWs)   bands (ev):

     9.2837   9.6328   9.8969  10.9585  11.5849  17.8843  18.8388  22.7231
    23.3768  39.1959

          k = 0.4062-0.0312 0.8438 (   467 PWs)   bands (ev):

     9.2180   9.5307  10.0081  11.0292  11.5459  16.1695  20.7875  22.8684
    23.6600  38.8169

          k =-0.2188 0.7188 0.2188 (   465 PWs)   bands (ev):

     8.8680   9.4461  10.3232  10.8581  11.5613  13.4433  21.0278  26.1196
    28.9046  32.5203

          k = 0.7188-0.2188 1.1562 (   470 PWs)   bands (ev):

     8.9944   9.3767  10.3462  10.9976  11.5402  14.4030  20.7067  24.5676
    27.1818  33.7483

          k = 0.6562-0.1562 1.0938 (   471 PWs)   bands (ev):

     9.1086   9.3907  10.2474  11.0797  11.5435  15.6644  20.6100  23.2601
    24.8143  36.1116

          k = 0.5938-0.0938 1.0312 (   469 PWs)   bands (ev):

     9.1767   9.5108  10.0899  11.0293  11.6142  17.1673  20.5605  22.1577
    22.8451  38.7114

          k = 0.5312-0.0312 0.9688 (   467 PWs)   bands (ev):

     9.2195   9.6845   9.8976  10.9702  11.6504  18.7493  19.5791  21.5063
    22.2652  40.4076

          k = 0.4688 0.0312 0.9062 (   467 PWs)   bands (ev):

     9.2497   9.6861   9.8651  10.9705  11.6137  17.8611  19.7059  22.1062
    22.7945  40.2521

          k =-0.2188-1.1562 0.2188 (   469 PWs)   bands (ev):

     8.9760   9.2909  10.5458  11.0553  11.5602  15.2249  20.3083  23.0139
    28.0987  32.1946

          k =-0.2812-1.0938 0.1562 (   469 PWs)   bands (ev):

     9.0076   9.2757  10.5390  11.1333  11.5553  16.2808  20.1449  21.7997
    26.6614  33.4685

          k =-0.3438-1.0312 0.0938 (   468 PWs)   bands (ev):

     9.0708   9.3484  10.3816  11.1018  11.6132  17.3782  20.1928  21.0994
    24.5228  35.9375

          k =-0.4062-0.9688 0.0312 (   471 PWs)   bands (ev):

     9.1526   9.5005  10.1361  11.0252  11.6504  17.9729  20.4266  21.2344
    22.7194  38.6520

          k =-0.2188-1.0312 0.2188 (   470 PWs)   bands (ev):

     8.9705   9.2288  10.6717  11.1837  11.5236  16.8737  19.8571  20.9481
    27.7460  32.0628

          k =-0.2812-0.9688 0.1562 (   470 PWs)   bands (ev):

     8.9994   9.2576  10.5858  11.1624  11.5552  17.0026  19.9466  20.9873
    26.5560  33.4139

          k =-0.3438-0.9062 0.0938 (   470 PWs)   bands (ev):

     9.0867   9.3620  10.3330  11.0974  11.5886  16.6264  20.3752  21.9574
    24.6194  35.9958

          k =-0.2188-0.9062 0.2188 (   472 PWs)   bands (ev):

     8.9759   9.2487  10.6280  11.1351  11.5410  16.1614  20.0596  21.7470
    27.8641  32.1062

          k =-0.2812-0.8438 0.1562 (   469 PWs)   bands (ev):

     9.0133   9.3144  10.4539  11.0768  11.5521  15.3385  20.3898  23.0766
    26.8707  33.5791

          k =-0.2188-0.7812 0.2188 (   468 PWs)   bands (ev):

     8.9500   9.3575  10.4371  10.9596  11.5688  14.2914  20.6273  24.5009
    28.4468  32.3309

          k =-0.2812 0.2812 0.2812 (   483 PWs)   bands (ev):

     6.9104  10.0701  10.3608  10.3608  11.1428  11.1428  23.9771  35.4432
    35.4432  35.7473

          k =-0.3438 0.3438 0.2188 (   476 PWs)   bands (ev):

     7.3105  10.0617  10.3269  10.3776  11.0893  11.3843  23.1307  32.2870
    36.3490  37.0044

          k =-0.4062 0.4062 0.1562 (   473 PWs)   bands (ev):

     7.8676   9.9765  10.2327  10.4601  11.0463  11.8160  22.5072  29.1373
    36.0461  36.1432

          k =-0.4688 0.4688 0.0938 (   467 PWs)   bands (ev):

     8.4925   9.8797  10.0763  10.5854  11.0335  12.4606  22.0894  26.2051
    34.2454  35.2833

          k = 0.4688-0.4688 1.0312 (   473 PWs)   bands (ev):

     9.0339   9.8358   9.8828  10.7078  11.0835  13.3770  21.7218  23.6906
    32.5701  34.3583

          k = 0.4062-0.4062 0.9688 (   464 PWs)   bands (ev):

     9.2928   9.6877   9.9438  10.7871  11.2140  14.6232  20.3567  22.6790
    31.1130  33.5751

          k = 0.3438-0.3438 0.9062 (   463 PWs)   bands (ev):

     9.2695   9.5378  10.1472  10.8420  11.3754  16.1252  18.3488  22.9253
    29.9165  32.9801

          k = 0.2812-0.2812 0.8438 (   464 PWs)   bands (ev):

     9.1315   9.4393  10.3106  10.8978  11.5066  15.9420  18.4814  23.5713
    29.0172  32.5720

          k =-0.2812 0.4062 0.2812 (   473 PWs)   bands (ev):

     7.5848  10.1344  10.2901  10.3671  11.2966  11.3340  22.2146  33.3971
    34.3772  35.9526

          k =-0.3438 0.4688 0.2188 (   470 PWs)   bands (ev):

     8.0057  10.0815  10.2131  10.4251  11.2555  11.7702  21.5219  30.6803
    34.0311  35.8492

          k =-0.4062 0.5312 0.1562 (   470 PWs)   bands (ev):

     8.5077   9.9707  10.0788  10.5461  11.2070  12.4692  21.0471  27.7090
    32.4153  36.6718

          k = 0.5312-0.4062 1.0938 (   468 PWs)   bands (ev):

     8.9955   9.8417   9.9231  10.6956  11.1958  13.4319  20.7592  24.9700
    30.8856  36.1508

          k = 0.4688-0.3438 1.0312 (   470 PWs)   bands (ev):

     9.3375   9.6524   9.8919  10.8215  11.2523  14.6919  20.4419  22.7314
    29.5327  35.2740

          k = 0.4062-0.2812 0.9688 (   466 PWs)   bands (ev):

     9.3748   9.4831  10.0556  10.9060  11.3698  16.2437  19.1941  21.9384
    28.3897  34.5141

          k = 0.3438-0.2188 0.9062 (   466 PWs)   bands (ev):

     9.1995   9.3999  10.2708  10.9847  11.4875  17.0498  18.3495  22.2956
    27.4902  33.9506

          k =-0.2812 0.5312 0.2812 (   467 PWs)   bands (ev):

     8.2660  10.0208  10.2152  10.4522  11.4766  11.9571  20.7588  31.6761
    31.9876  33.8414

          k =-0.3438 0.5938 0.2188 (   469 PWs)   bands (ev):

     8.6076   9.8911  10.1582  10.5567  11.4457  12.6497  20.2169  29.3228
    30.3593  35.0013

          k = 0.5938-0.3438 1.1562 (   470 PWs)   bands (ev):

     8.9788   9.7494  10.0341  10.7128  11.3857  13.6496  19.8880  26.5839
    28.7566  36.8446

          k = 0.5312-0.2812 1.0938 (   469 PWs)   bands (ev):

     9.3182   9.6053   9.9041  10.8486  11.3809  14.9250  19.7270  24.0578
    27.3705  37.6136

          k = 0.4688-0.2188 1.0312 (   469 PWs)   bands (ev):

     9.4089   9.5369   9.9072  10.9258  11.4543  16.4744  19.4757  22.0872
    26.2059  37.1065

          k = 0.4062-0.1562 0.9688 (   467 PWs)   bands (ev):

     9.2481   9.4722  10.1155  10.9932  11.5457  18.1515  18.4853  21.4869
    25.2783  36.4894

          k =-0.2812 0.6562 0.2812 (   468 PWs)   bands (ev):

     8.7773   9.7614  10.2207  10.6053  11.5473  13.2044  19.6075  28.4274
    30.3148  33.1145

          k = 0.6562-0.2812 1.2188 (   468 PWs)   bands (ev):

     8.9969   9.6332  10.1774  10.7358  11.5188  14.1371  19.2198  26.7778
    28.3667  34.4093

          k = 0.5938-0.2188 1.1562 (   470 PWs)   bands (ev):

     9.2375   9.5296  10.0506  10.8762  11.4874  15.3675  19.0449  25.3230
    25.8558  36.6909

          k = 0.5312-0.1562 1.0938 (   471 PWs)   bands (ev):

     9.3382   9.5865   9.8939  10.9402  11.5325  16.8579  19.0308  23.4482
    24.2115  38.9059

          k = 0.4688-0.0938 1.0312 (   470 PWs)   bands (ev):

     9.2532   9.6565   9.9013  10.9654  11.6132  18.5589  18.9293  21.7063
    23.2650  39.2882

          k =-0.2812-1.2188 0.2812 (   466 PWs)   bands (ev):

     9.0622   9.5235  10.2744  10.7996  11.5374  14.9478  18.7726  25.0853
    29.3456  32.6998

          k =-0.3438-1.1562 0.2188 (   464 PWs)   bands (ev):

     9.1743   9.4450  10.2396  10.9155  11.5077  16.0502  18.5521  23.6359
    27.6857  34.0501

          k =-0.4062-1.0938 0.1562 (   469 PWs)   bands (ev):

     9.2659   9.4675  10.0992  10.9747  11.5356  17.3718  18.5577  22.4684
    25.3695  36.5270

          k =-0.2812-1.0938 0.2812 (   464 PWs)   bands (ev):

     9.1641   9.3870  10.3419  10.9833  11.4679  16.9397  18.2756  22.2384
    28.7966  32.4895

          k =-0.3438-1.0312 0.2188 (   465 PWs)   bands (ev):

     9.2026   9.3838  10.2894  11.0247  11.4720  17.8541  18.2174  21.3515
    27.3921  33.9014

          k =-0.2812-0.9688 0.2812 (   466 PWs)   bands (ev):

     9.1734   9.3647  10.3601  11.0373  11.4378  17.7494  18.1264  21.3071
    28.6859  32.4491

          k =-0.3438 0.3438 0.3438 (   471 PWs)   bands (ev):

     7.7362  10.2995  10.2995  10.4122  11.2997  11.2997  21.2418  35.1500
    35.1500  35.2782

          k =-0.4062 0.4062 0.2812 (   474 PWs)   bands (ev):

     8.0298  10.2522  10.3115  10.4571  11.2677  11.6542  20.4927  32.2084
    35.5983  36.0027

          k =-0.4688 0.4688 0.2188 (   468 PWs)   bands (ev):

     8.4230  10.1344  10.3113  10.3981  11.2458  12.3750  19.9597  29.1853
    34.5720  35.1810

          k = 0.4688-0.4688 1.1562 (   466 PWs)   bands (ev):

     8.8486   9.9469  10.1410  10.5446  11.2426  13.3691  19.6263  26.3504
    32.8190  34.3910

          k = 0.4062-0.4062 1.0938 (   464 PWs)   bands (ev):

     9.2052   9.7182  10.0363  10.7245  11.2680  14.6296  19.4340  23.8141
    31.2067  33.6017

          k = 0.3438-0.3438 1.0312 (   465 PWs)   bands (ev):

     9.3212   9.5053  10.1153  10.9001  11.3335  16.1628  19.0993  21.8896
    29.8138  32.9447

          k =-0.3438 0.4688 0.3438 (   472 PWs)   bands (ev):

     8.1816  10.2149  10.3068  10.6151  11.4558  11.6991  19.6916  33.3858
    34.0554  34.8759

          k =-0.4062 0.5312 0.2812 (   467 PWs)   bands (ev):

     8.4434  10.1220  10.3572  10.5066  11.4184  12.4143  19.1088  30.8003
    32.8692  35.5066

          k = 0.5312-0.4062 1.2188 (   466 PWs)   bands (ev):

     8.7760   9.9561  10.2970  10.5011  11.3764  13.4400  18.7295  27.9485
    31.2612  35.9190

          k = 0.4688-0.3438 1.1562 (   468 PWs)   bands (ev):

     9.1159   9.7359  10.1317  10.6686  11.3686  14.7087  18.5274  25.2982
    29.7813  35.3211

          k = 0.4062-0.2812 1.0938 (   463 PWs)   bands (ev):

     9.3208   9.5140  10.0918  10.8556  11.4010  16.2164  18.4247  22.9852
    28.4803  34.5528

          k =-0.3438 0.5938 0.3438 (   467 PWs)   bands (ev):

     8.5736  10.0413  10.3982  10.4899  11.5332  12.8759  18.4862  30.9315
    31.9291  33.8058

          k = 0.5938-0.3438 1.2812 (   465 PWs)   bands (ev):

     8.7965   9.9032  10.3553  10.5090  11.5033  13.7814  18.0787  29.1929
    29.7896  35.0852

          k = 0.5312-0.2812 1.2188 (   471 PWs)   bands (ev):

     9.0800   9.7149  10.1854  10.6588  11.4647  14.9687  17.8771  27.0036
    27.8010  36.7164

          k = 0.4688-0.2188 1.1562 (   471 PWs)   bands (ev):

     9.3493   9.5095  10.0386  10.8254  11.4737  16.3324  17.9045  24.5660
    26.4655  37.0515

          k =-0.3438-1.2812 0.3438 (   465 PWs)   bands (ev):

     8.9069   9.8062  10.3369  10.5584  11.5213  14.4704  17.6742  27.4725
    30.8318  33.3231

          k =-0.4062-1.2188 0.2812 (   468 PWs)   bands (ev):

     9.0974   9.6707  10.2182  10.6825  11.4816  15.4145  17.5496  25.9080
    28.9319  34.7464

          k =-0.3438-1.1562 0.3438 (   461 PWs)   bands (ev):

     9.1752   9.6026  10.2009  10.7532  11.4324  15.8971  17.6880  24.3087
    30.1212  33.0526

          k =-0.4062 0.4062 0.4062 (   471 PWs)   bands (ev):

     8.2138  10.2418  10.2418  11.2550  11.4350  11.4350  18.8668  34.9110
    35.0039  35.0039

          k =-0.4688 0.4688 0.3438 (   470 PWs)   bands (ev):

     8.3690  10.1924  10.2624  10.9937  11.4186  12.2132  18.2695  32.3784
    35.0002  35.0056

          k = 0.4688-0.4688 1.2812 (   464 PWs)   bands (ev):

     8.6253  10.0613  10.3648  10.6357  11.4106  13.2739  17.8787  29.5016
    33.3835  34.4747

          k = 0.4062-0.4062 1.2188 (   467 PWs)   bands (ev):

     8.9324   9.8540  10.3384  10.5359  11.4143  14.5189  17.6787  26.7757
    31.6727  33.7416

          k =-0.4062 0.5312 0.4062 (   470 PWs)   bands (ev):

     8.4169  10.1694  10.2611  11.0539  11.5208  12.4633  17.6855  33.4454
    33.6499  34.5041

          k = 0.5312-0.4062 1.3438 (   461 PWs)   bands (ev):

     8.5824  10.0782  10.3301  10.7820  11.4961  13.3174  17.3394  31.1624
    31.9688  35.3336

          k = 0.4688-0.3438 1.2812 (   465 PWs)   bands (ev):

     8.8354   9.9053  10.4527  10.4771  11.4769  14.3851  17.2460  28.4589
    30.3657  35.3862

          k =-0.4062-1.3438 0.4062 (   466 PWs)   bands (ev):

     8.6562  10.0291  10.3657  10.6907  11.5117  13.7376  17.1110  30.0877
    32.4988  34.0197

          k =-0.4688 0.4688 0.4688 (   470 PWs)   bands (ev):

     8.3745  10.2083  10.2083  11.5121  11.5121  12.2372  17.1940  34.7117
    34.9567  34.9567

          k = 0.4688-0.4688 1.4062 (   468 PWs)   bands (ev):

     8.4596  10.1617  10.2445  11.1744  11.5087  12.8829  16.9920  32.8020
    34.1935  34.6254

     the Fermi energy is    13.3173 ev

!    total energy              =     -87.64022631 Ry
     Harris-Foulkes estimate   =     -87.64022631 Ry
     estimated scf accuracy    <          6.0E-14 Ry

     The total energy is the sum of the following terms:

     one-electron contribution =     -13.61685148 Ry
     hartree contribution      =      20.29309022 Ry
     xc contribution           =     -14.40169827 Ry
     ewald contribution        =     -79.91476678 Ry
     smearing contrib. (-TS)   =       0.00000000 Ry

     convergence has been achieved in  10 iterations

     Forces acting on atoms (Ry/au):

     atom    1 type  1   force =     0.00000000    0.00000000    0.00000000

     Total force =     0.000000     Total SCF correction =     0.000000


     entering subroutine stress ...

          total   stress  (Ry/bohr**3)                   (kbar)     P=        0.43
   0.00000290   0.00000000   0.00000000          0.43      0.00      0.00
   0.00000000   0.00000290   0.00000000          0.00      0.43      0.00
   0.00000000   0.00000000   0.00000290          0.00      0.00      0.43


     Writing output data file Cu.save
 
     init_run     :      1.89s CPU      1.95s WALL (       1 calls)
     electrons    :     49.51s CPU     50.24s WALL (       1 calls)
     forces       :      0.14s CPU      0.15s WALL (       1 calls)
     stress       :      0.74s CPU      0.75s WALL (       1 calls)

     Called by init_run:
     wfcinit      :      1.62s CPU      1.67s WALL (       1 calls)
     potinit      :      0.02s CPU      0.02s WALL (       1 calls)

     Called by electrons:
     c_bands      :     40.68s CPU     41.27s WALL (      10 calls)
     sum_band     :      8.53s CPU      8.66s WALL (      10 calls)
     v_of_rho     :      0.14s CPU      0.14s WALL (      11 calls)
     newd         :      0.15s CPU      0.15s WALL (      11 calls)
     mix_rho      :      0.01s CPU      0.01s WALL (      10 calls)

     Called by c_bands:
     init_us_2    :      0.80s CPU      0.80s WALL (    9384 calls)
     cegterg      :     38.74s CPU     39.22s WALL (    4080 calls)

     Called by *egterg:
     h_psi        :     34.87s CPU     35.30s WALL (   11586 calls)
     s_psi        :      0.42s CPU      0.47s WALL (   11586 calls)
     g_psi        :      0.29s CPU      0.28s WALL (    7098 calls)
     cdiaghg      :      2.08s CPU      2.05s WALL (   11178 calls)

     Called by h_psi:
     add_vuspsi   :      0.50s CPU      0.49s WALL (   11586 calls)

     General routines
     calbec       :      1.04s CPU      1.03s WALL (   16482 calls)
     fft          :      0.05s CPU      0.05s WALL (     180 calls)
     ffts         :      0.01s CPU      0.01s WALL (      21 calls)
     fftw         :     34.14s CPU     34.60s WALL (  238670 calls)
     interpolate  :      0.02s CPU      0.02s WALL (      21 calls)
     davcio       :      0.35s CPU      0.39s WALL (   13464 calls)
 
     Parallel routines
     fft_scatter  :      2.50s CPU      2.49s WALL (  238871 calls)
     EXX routines
 
     PWSCF        :    52.87s CPU        53.75s WALL

 
   This run was terminated on:  14:23:48  30Oct2013            

=------------------------------------------------------------------------------=
   JOB DONE.
=------------------------------------------------------------------------------=
