
     Program PWSCF v.5.0        starts on 30Oct2013 at 14:23:48 

     This program is part of the open-source Quantum ESPRESSO suite
     for quantum simulation of materials; please cite
         "P. Giannozzi et al., J. Phys.:Condens. Matter 21 395502 (2009);
          URL http://www.quantum-espresso.org", 
     in publications or presentations arising from this work. More details at
     http://www.quantum-espresso.org/quote.php

     Parallel version (MPI), running on     1 processors

     Current dimensions of program PWSCF are:
     Max number of different atomic species (ntypx) = 10
     Max number of k-points (npk) =  40000
     Max angular momentum in pseudopotentials (lmaxx) =  3
     Waiting for input...
     Reading input from standard input

     Atomic positions and unit cell read from directory:
     ./raw/Cu.save/
 

     Subspace diagonalization in iterative solution of the eigenvalue problem:
     a serial algorithm will be used

 kpoint style unhandled: 
 none                                                                           
  
 
     G-vector sticks info
     --------------------
     sticks:   dense  smooth     PW     G-vecs:    dense   smooth      PW
     Sum         649     313    109                10777     3719     749
 


     bravais-lattice index     =            2
     lattice parameter (alat)  =       6.9420  a.u.
     unit-cell volume          =      83.6361 (a.u.)^3
     number of atoms/cell      =            1
     number of atomic types    =            1
     number of electrons       =        11.00
     number of Kohn-Sham states=           10
     kinetic-energy cutoff     =      48.0000  Ry
     charge density cutoff     =     384.0000  Ry
     Exchange-correlation      =  SLA  PW   PBE  PBE ( 1 4 3 4 0)
     EXX-fraction              =        0.00

     celldm(1)=   6.942000  celldm(2)=   0.000000  celldm(3)=   0.000000
     celldm(4)=   0.000000  celldm(5)=   0.000000  celldm(6)=   0.000000

     crystal axes: (cart. coord. in units of alat)
               a(1) = (  -0.500000   0.000000   0.500000 )  
               a(2) = (   0.000000   0.500000   0.500000 )  
               a(3) = (  -0.500000   0.500000   0.000000 )  

     reciprocal axes: (cart. coord. in units 2 pi/alat)
               b(1) = ( -1.000000 -1.000000  1.000000 )  
               b(2) = (  1.000000  1.000000  1.000000 )  
               b(3) = ( -1.000000  1.000000 -1.000000 )  


     PseudoPot. # 1 for Cu read from file:
     ../pseudo/Cu.pbe-d-rrkjus.UPF
     MD5 check sum: 855c9c66b119533e70b4be5d3ca221fe
     Pseudo is Ultrasoft, Zval = 11.0
     Generated by new atomic code, or converted to UPF format
     Using radial grid of  899 points,  3 beta functions with: 
                l(1) =   2
                l(2) =   2
                l(3) =   1
     Q(r) pseudized with 0 coefficients 


     atomic species   valence    mass     pseudopotential
        Cu            11.00    63.54600     Cu( 1.00)

     No symmetry found



   Cartesian axes

     site n.     atom                  positions (alat units)
         1           Cu  tau(   1) = (   0.0000000   0.0000000   0.0000000  )

     number of k points=    15  gaussian smearing, width (Ry)=  0.0000
                       cart. coord. in units 2pi/alat
        k(    1) = (   0.0000000   0.0000000   0.0000000), wk =   0.1333333
        k(    2) = (   0.5000000   0.0000000   0.0000000), wk =   0.1333333
        k(    3) = (   1.0000000   0.0000000   0.0000000), wk =   0.1333333
        k(    4) = (   1.0000000   0.2500000   0.0000000), wk =   0.1333333
        k(    5) = (   1.0000000   0.5000000   0.0000000), wk =   0.1333333
        k(    6) = (   0.7500000   0.5000000   0.2500000), wk =   0.1333333
        k(    7) = (   0.5000000   0.5000000   0.5000000), wk =   0.1333333
        k(    8) = (   0.2500000   0.2500000   0.2500000), wk =   0.1333333
        k(    9) = (   0.0000000   0.0000000   0.0000000), wk =   0.1333333
        k(   10) = (   0.5000000   0.5000000   0.0000000), wk =   0.1333333
        k(   11) = (   1.0000000   1.0000000   0.0000000), wk =   0.1333333
        k(   12) = (   0.8750000   0.8750000   0.0000000), wk =   0.1333333
        k(   13) = (   0.7500000   0.7500000   0.0000000), wk =   0.1333333
        k(   14) = (   0.6250000   0.6250000   0.2500000), wk =   0.1333333
        k(   15) = (   0.5000000   0.5000000   0.5000000), wk =   0.1333333

     Dense  grid:    10777 G-vectors     FFT dimensions: (  32,  32,  32)

     Smooth grid:     3719 G-vectors     FFT dimensions: (  24,  24,  24)

     Largest allocated arrays     est. size (Mb)     dimensions
        Kohn-Sham Wavefunctions         0.07 Mb     (    483,   10)
        NL pseudopotentials             0.10 Mb     (    483,   13)
        Each V/rho on FFT grid          0.50 Mb     (  32768)
        Each G-vector array             0.08 Mb     (  10777)
        G-vector shells                 0.00 Mb     (    159)
     Largest temporary arrays     est. size (Mb)     dimensions
        Auxiliary wavefunctions         0.29 Mb     (    483,   40)
        Each subspace H/S matrix        0.02 Mb     (  40,  40)
        Each <psi_i|beta_j> matrix      0.00 Mb     (     13,   10)

     The potential is recalculated from file :
     ./raw/Cu.save/charge-density.dat

     Starting wfc are    6 randomized atomic wfcs

     total cpu time spent up to now is        0.8 secs

     per-process dynamical memory:    13.2 Mb

     Band Structure Calculation
     Davidson diagonalization with overlap

     ethr =  9.09E-15,  avg # of iterations = 17.9

     total cpu time spent up to now is        1.7 secs

     End of band structure calculation

          k = 0.0000 0.0000 0.0000     band energies (ev):

     4.4118  10.2394  10.2394  10.2394  10.9889  10.9889  36.4405  38.1928
    38.1928  38.1928

          k = 0.5000 0.0000 0.0000     band energies (ev):

     7.0624   9.5808  10.6021  10.8565  10.8565  11.2412  30.0430  30.0430
    31.4117  32.1160

          k = 1.0000 0.0000 0.0000     band energies (ev):

     8.5389   8.9502  11.4977  11.6593  11.6593  14.8565  20.1806  26.2054
    26.2054  30.5035

          k = 1.0000 0.2500 0.0000     band energies (ev):

     8.8355   9.1554  10.8373  11.2746  11.6597  16.3347  20.4807  23.0740
    24.0444  34.7028

          k = 1.0000 0.5000 0.0000     band energies (ev):

     9.2202   9.7912   9.7912  10.9629  11.6600  19.3222  19.3222  21.3200
    22.0128  41.6722

          k = 0.7500 0.5000 0.2500     band energies (ev):

     9.0901   9.7069  10.2120  10.6497  11.4742  15.3145  17.4460  27.1974
    27.5400  36.6997

          k = 0.5000 0.5000 0.5000     band energies (ev):

     8.3904  10.2039  10.2039  11.5222  11.5222  12.4253  16.9236  34.6861
    34.9525  34.9525

          k = 0.2500 0.2500 0.2500     band energies (ev):

     6.4534  10.0282  10.3822  10.3822  11.0722  11.0722  25.4465  35.6536
    35.6536  35.9900

          k = 0.0000 0.0000 0.0000     band energies (ev):

     4.4118  10.2394  10.2394  10.2394  10.9889  10.9889  36.4405  38.1928
    38.1928  38.1928

          k = 0.5000 0.5000 0.0000     band energies (ev):

     8.8127   9.7906   9.9723  10.6942  11.0036  12.8844  22.7158  23.9887
    33.3451  34.8109

          k = 1.0000 1.0000 0.0000     band energies (ev):

     8.5389   8.9502  11.4977  11.6593  11.6593  14.8565  20.1806  26.2054
    26.2054  30.5035

          k = 0.8750 0.8750 0.0000     band energies (ev):

     8.6964   9.0483  11.2152  11.3842  11.6136  15.6761  20.3213  23.1210
    26.7169  31.5745

          k = 0.7500 0.7500 0.0000     band energies (ev):

     9.0727   9.2947  10.5129  11.1176  11.4794  17.5055  18.8764  20.9598
    28.1769  32.2390

          k = 0.6250 0.6250 0.2500     band energies (ev):

     8.9297   9.8253  10.3610  10.5436  11.4772  14.7900  17.2909  27.0909
    31.2127  33.5047

          k = 0.5000 0.5000 0.5000     band energies (ev):

     8.3904  10.2039  10.2039  11.5222  11.5222  12.4253  16.9236  34.6861
    34.9525  34.9525

     the Fermi energy is    14.7900 ev

     Writing output data file Cu.save
 
     init_run     :      0.25s CPU      0.26s WALL (       1 calls)
     electrons    :      0.91s CPU      0.92s WALL (       1 calls)

     Called by init_run:
     wfcinit      :      0.00s CPU      0.00s WALL (       1 calls)
     potinit      :      0.02s CPU      0.02s WALL (       1 calls)

     Called by electrons:
     c_bands      :      0.91s CPU      0.92s WALL (       1 calls)
     v_of_rho     :      0.01s CPU      0.01s WALL (       1 calls)
     newd         :      0.01s CPU      0.01s WALL (       1 calls)

     Called by c_bands:
     init_us_2    :      0.00s CPU      0.00s WALL (      15 calls)
     cegterg      :      0.84s CPU      0.85s WALL (      19 calls)

     Called by *egterg:
     h_psi        :      0.71s CPU      0.72s WALL (     303 calls)
     s_psi        :      0.01s CPU      0.01s WALL (     303 calls)
     g_psi        :      0.01s CPU      0.01s WALL (     269 calls)
     cdiaghg      :      0.07s CPU      0.08s WALL (     284 calls)

     Called by h_psi:
     add_vuspsi   :      0.01s CPU      0.01s WALL (     303 calls)

     General routines
     calbec       :      0.02s CPU      0.02s WALL (     303 calls)
     fft          :      0.01s CPU      0.00s WALL (      12 calls)
     ffts         :      0.00s CPU      0.00s WALL (       1 calls)
     fftw         :      0.58s CPU      0.58s WALL (    3924 calls)
     interpolate  :      0.00s CPU      0.00s WALL (       1 calls)
     davcio       :      0.00s CPU      0.00s WALL (      15 calls)
 
     Parallel routines
     fft_scatter  :      0.03s CPU      0.04s WALL (    3937 calls)
     EXX routines
 
     PWSCF        :     1.71s CPU         1.74s WALL

 
   This run was terminated on:  14:23:49  30Oct2013            

=------------------------------------------------------------------------------=
   JOB DONE.
=------------------------------------------------------------------------------=
