<PP_INFO>
Generated using Fritz-Haber code                                                
Author: unknown    Generation date: as well                                     
Info: automatically converted from FHI format                                   
    1        The Pseudo was generated with a Scalar-Relativistic Calculation
nl pn  l   occ               Rcut            Rcut US             E pseu
3s  0  0  1.00      0.00000000000      0.00000000000      0.00000000000
</PP_INFO>


<PP_HEADER>
   0                   Version Number
  Na                   Element
   NC                  Norm - Conserving pseudopotential
    F                  Nonlinear Core Correction
SLA  PZ   NOGX NOGC    PZ   Exchange-Correlation functional
    1.00000000000      Z valence
    0.00000000000      Total energy
  0.0000000  0.0000000 Suggested cutoff for wfc and rho
   -1                  Max angular momentum component
  485                  Number of points in mesh
    1    0             Number of Wavefunctions, Number of Projectors
 Wavefunctions         nl  l   occ
                       3s  0  1.00
</PP_HEADER>


<PP_MESH>
  <PP_R>
  5.68181818182E-04  5.82215909091E-04  5.96596642045E-04  6.11332579104E-04
  6.26432493808E-04  6.41905376405E-04  6.57760439202E-04  6.74007122050E-04
  6.90655097965E-04  7.07714278885E-04  7.25194821573E-04  7.43107133666E-04
  7.61461879868E-04  7.80269988300E-04  7.99542657011E-04  8.19291360640E-04
  8.39527857247E-04  8.60264195321E-04  8.81512720946E-04  9.03286085153E-04
  9.25597251456E-04  9.48459503567E-04  9.71886453306E-04  9.95892048702E-04
  1.02049058231E-03  1.04569669969E-03  1.07152540817E-03  1.09799208575E-03
  1.12511249027E-03  1.15290276878E-03  1.18137946717E-03  1.21055954001E-03
  1.24046036065E-03  1.27109973155E-03  1.30249589492E-03  1.33466754353E-03
  1.36763383185E-03  1.40141438750E-03  1.43602932287E-03  1.47149924715E-03
  1.50784527855E-03  1.54508905693E-03  1.58325275664E-03  1.62235909973E-03
  1.66243136949E-03  1.70349342432E-03  1.74556971190E-03  1.78868528378E-03
  1.83286581029E-03  1.87813759580E-03  1.92452759442E-03  1.97206342600E-03
  2.02077339262E-03  2.07068649542E-03  2.12183245186E-03  2.17424171342E-03
  2.22794548374E-03  2.28297573719E-03  2.33936523790E-03  2.39714755927E-03
  2.45635710399E-03  2.51702912446E-03  2.57919974383E-03  2.64290597750E-03
  2.70818575515E-03  2.77507794330E-03  2.84362236850E-03  2.91385984100E-03
  2.98583217907E-03  3.05958223390E-03  3.13515391507E-03  3.21259221678E-03
  3.29194324453E-03  3.37325424267E-03  3.45657362247E-03  3.54195099094E-03
  3.62943718042E-03  3.71908427877E-03  3.81094566046E-03  3.90507601827E-03
  4.00153139592E-03  4.10036922140E-03  4.20164834117E-03  4.30542905520E-03
  4.41177315286E-03  4.52074394974E-03  4.63240632530E-03  4.74682676153E-03
  4.86407338254E-03  4.98421599509E-03  5.10732613017E-03  5.23347708558E-03
  5.36274396960E-03  5.49520374565E-03  5.63093527816E-03  5.77001937953E-03
  5.91253885821E-03  6.05857856801E-03  6.20822545864E-03  6.36156862746E-03
  6.51869937256E-03  6.67971124706E-03  6.84470011487E-03  7.01376420770E-03
  7.18700418363E-03  7.36452318697E-03  7.54642690969E-03  7.73282365436E-03
  7.92382439862E-03  8.11954286127E-03  8.32009556994E-03  8.52560193052E-03
  8.73618429820E-03  8.95196805037E-03  9.17308166121E-03  9.39965677824E-03
  9.63182830067E-03  9.86973445969E-03  1.01135169008E-02  1.03633207683E-02
  1.06192947913E-02  1.08815913726E-02  1.11503666795E-02  1.14257807365E-02
  1.17079975207E-02  1.19971850595E-02  1.22935155304E-02  1.25971653640E-02
  1.29083153485E-02  1.32271507376E-02  1.35538613608E-02  1.38886417365E-02
  1.42316911874E-02  1.45832139597E-02  1.49434193445E-02  1.53125218023E-02
  1.56907410908E-02  1.60783023958E-02  1.64754364649E-02  1.68823797456E-02
  1.72993745253E-02  1.77266690761E-02  1.81645178023E-02  1.86131813920E-02
  1.90729269724E-02  1.95440282686E-02  2.00267657668E-02  2.05214268813E-02
  2.10283061252E-02  2.15477052865E-02  2.20799336071E-02  2.26253079672E-02
  2.31841530740E-02  2.37568016549E-02  2.43435946558E-02  2.49448814438E-02
  2.55610200155E-02  2.61923772098E-02  2.68393289269E-02  2.75022603514E-02
  2.81815661821E-02  2.88776508668E-02  2.95909288432E-02  3.03218247856E-02
  3.10707738578E-02  3.18382219721E-02  3.26246260548E-02  3.34304543184E-02
  3.42561865401E-02  3.51023143476E-02  3.59693415120E-02  3.68577842473E-02
  3.77681715182E-02  3.87010453547E-02  3.96569611750E-02  4.06364881160E-02
  4.16402093725E-02  4.26687225440E-02  4.37226399908E-02  4.48025891986E-02
  4.59092131518E-02  4.70431707167E-02  4.82051370334E-02  4.93958039181E-02
  5.06158802749E-02  5.18660925177E-02  5.31471850028E-02  5.44599204724E-02
  5.58050805081E-02  5.71834659966E-02  5.85958976067E-02  6.00432162776E-02
  6.15262837197E-02  6.30459829276E-02  6.46032187059E-02  6.61989182079E-02
  6.78340314877E-02  6.95095320654E-02  7.12264175074E-02  7.29857100198E-02
  7.47884570573E-02  7.66357319467E-02  7.85286345257E-02  8.04682917985E-02
  8.24558586059E-02  8.44925183135E-02  8.65794835159E-02  8.87179967587E-02
  9.09093312786E-02  9.31547917612E-02  9.54557151177E-02  9.78134712811E-02
  1.00229464022E-01  1.02705131783E-01  1.05241948538E-01  1.07841424667E-01
  1.10505107856E-01  1.13234584020E-01  1.16031478246E-01  1.18897455758E-01
  1.21834222916E-01  1.24843528222E-01  1.27927163369E-01  1.31086964304E-01
  1.34324812322E-01  1.37642635187E-01  1.41042408276E-01  1.44526155760E-01
  1.48095951807E-01  1.51753921817E-01  1.55502243686E-01  1.59343149105E-01
  1.63278924888E-01  1.67311914333E-01  1.71444518617E-01  1.75679198226E-01
  1.80018474423E-01  1.84464930741E-01  1.89021214530E-01  1.93690038529E-01
  1.98474182481E-01  2.03376494788E-01  2.08399894209E-01  2.13547371596E-01
  2.18821991675E-01  2.24226894869E-01  2.29765299172E-01  2.35440502062E-01
  2.41255882463E-01  2.47214902759E-01  2.53321110858E-01  2.59578142296E-01
  2.65989722411E-01  2.72559668554E-01  2.79291892367E-01  2.86190402109E-01
  2.93259305041E-01  3.00502809875E-01  3.07925229279E-01  3.15530982443E-01
  3.23324597709E-01  3.31310715272E-01  3.39494089939E-01  3.47879593961E-01
  3.56472219932E-01  3.65277083764E-01  3.74299427733E-01  3.83544623598E-01
  3.93018175801E-01  4.02725724743E-01  4.12673050144E-01  4.22866074483E-01
  4.33310866523E-01  4.44013644926E-01  4.54980781956E-01  4.66218807270E-01
  4.77734411809E-01  4.89534451781E-01  5.01625952740E-01  5.14016113773E-01
  5.26712311783E-01  5.39722105884E-01  5.53053241899E-01  5.66713656974E-01
  5.80711484302E-01  5.95055057964E-01  6.09752917895E-01  6.24813814967E-01
  6.40246716197E-01  6.56060810087E-01  6.72265512096E-01  6.88870470245E-01
  7.05885570860E-01  7.23320944460E-01  7.41186971789E-01  7.59494289992E-01
  7.78253798955E-01  7.97476667789E-01  8.17174341483E-01  8.37358547718E-01
  8.58041303846E-01  8.79234924051E-01  9.00952026676E-01  9.23205541734E-01
  9.46008718615E-01  9.69375133965E-01  9.93318699774E-01  1.01785367166E+00
  1.04299465735E+00  1.06875662538E+00  1.09515491403E+00  1.12220524041E+00
  1.14992370985E+00  1.17832682548E+00  1.20743149807E+00  1.23725505607E+00
  1.26781525596E+00  1.29913029278E+00  1.33121881101E+00  1.36409991564E+00
  1.39779318356E+00  1.43231867519E+00  1.46769694647E+00  1.50394906105E+00
  1.54109660286E+00  1.57916168895E+00  1.61816698266E+00  1.65813570713E+00
  1.69909165910E+00  1.74105922308E+00  1.78406338589E+00  1.82812975152E+00
  1.87328455638E+00  1.91955468493E+00  1.96696768565E+00  2.01555178748E+00
  2.06533591663E+00  2.11634971377E+00  2.16862355170E+00  2.22218855343E+00
  2.27707661070E+00  2.33332040298E+00  2.39095341694E+00  2.45000996634E+00
  2.51052521250E+00  2.57253518525E+00  2.63607680433E+00  2.70118790140E+00
  2.76790724256E+00  2.83627455145E+00  2.90633053287E+00  2.97811689703E+00
  3.05167638439E+00  3.12705279109E+00  3.20429099502E+00  3.28343698260E+00
  3.36453787607E+00  3.44764196161E+00  3.53279871806E+00  3.62005884640E+00
  3.70947429991E+00  3.80109831511E+00  3.89498544350E+00  3.99119158395E+00
  4.08977401607E+00  4.19079143427E+00  4.29430398270E+00  4.40037329107E+00
  4.50906251136E+00  4.62043635539E+00  4.73456113337E+00  4.85150479336E+00
  4.97133696176E+00  5.09412898471E+00  5.21995397064E+00  5.34888683371E+00
  5.48100433850E+00  5.61638514566E+00  5.75510985876E+00  5.89726107227E+00
  6.04292342076E+00  6.19218362925E+00  6.34513056489E+00  6.50185528985E+00
  6.66245111551E+00  6.82701365806E+00  6.99564089541E+00  7.16843322553E+00
  7.34549352620E+00  7.52692721630E+00  7.71284231854E+00  7.90334952381E+00
  8.09856225705E+00  8.29859674480E+00  8.50357208439E+00  8.71361031488E+00
  8.92883648965E+00  9.14937875095E+00  9.37536840610E+00  9.60694000573E+00
  9.84423142387E+00  1.00873839400E+01  1.03365423234E+01  1.05918549187E+01
  1.08534737352E+01  1.11215545365E+01  1.13962569335E+01  1.16777444798E+01
  1.19661847685E+01  1.22617495322E+01  1.25646147457E+01  1.28749607299E+01
  1.31929722599E+01  1.35188386748E+01  1.38527539900E+01  1.41949170136E+01
  1.45455314638E+01  1.49048060910E+01  1.52729548014E+01  1.56501967850E+01
  1.60367566456E+01  1.64328645347E+01  1.68387562888E+01  1.72546735691E+01
  1.76808640062E+01  1.81175813472E+01  1.85650856065E+01  1.90236432209E+01
  1.94935272085E+01  1.99750173306E+01  2.04684002586E+01  2.09739697450E+01
  2.14920267977E+01  2.20228798596E+01  2.25668449921E+01  2.31242460635E+01
  2.36954149412E+01  2.42806916903E+01  2.48804247750E+01  2.54949712670E+01
  2.61246970573E+01  2.67699770746E+01  2.74311955083E+01  2.81087460374E+01
  2.88030320645E+01  2.95144669565E+01  3.02434742903E+01  3.09904881053E+01
  3.17559531615E+01  3.25403252046E+01  3.33440712371E+01  3.41676697967E+01
  3.50116112407E+01  3.58763980383E+01  3.67625450698E+01  3.76705799331E+01
  3.86010432574E+01  3.95544890259E+01  4.05314849048E+01  4.15326125820E+01
  4.25584681127E+01  4.36096622751E+01  4.46868209333E+01  4.57905854104E+01
  4.69216128700E+01  4.80805767079E+01  4.92681669526E+01  5.04850906763E+01
  5.17320724160E+01  5.30098546047E+01  5.43191980134E+01  5.56608822044E+01
  5.70357059948E+01  5.84444879329E+01  5.98880667848E+01  6.13673020344E+01
  6.28830743947E+01  6.44362863322E+01  6.60278626046E+01  6.76587508109E+01
  6.93299219560E+01  7.10423710283E+01  7.27971175927E+01  7.45952063972E+01
  7.64377079952E+01
  </PP_R>
  <PP_RAB>
  1.38635720588E-05  1.42060022887E-05  1.45568905452E-05  1.49164457417E-05
  1.52848819515E-05  1.56624185357E-05  1.60492802735E-05  1.64456974963E-05
  1.68519062244E-05  1.72681483082E-05  1.76946715714E-05  1.81317299592E-05
  1.85795836892E-05  1.90384994063E-05  1.95087503417E-05  1.99906164751E-05
  2.04843847020E-05  2.09903490042E-05  2.15088106246E-05  2.20400782470E-05
  2.25844681797E-05  2.31423045438E-05  2.37139194660E-05  2.42996532768E-05
  2.48998547127E-05  2.55148811241E-05  2.61450986879E-05  2.67908826255E-05
  2.74526174263E-05  2.81306970768E-05  2.88255252946E-05  2.95375157693E-05
  3.02670924088E-05  3.10146895913E-05  3.17807524243E-05  3.25657370091E-05
  3.33701107133E-05  3.41943524479E-05  3.50389529533E-05  3.59044150913E-05
  3.67912541440E-05  3.76999981214E-05  3.86311880750E-05  3.95853784204E-05
  4.05631372674E-05  4.15650467579E-05  4.25917034129E-05  4.36437184872E-05
  4.47217183338E-05  4.58263447766E-05  4.69582554926E-05  4.81181244033E-05
  4.93066420760E-05  5.05245161353E-05  5.17724716839E-05  5.30512517345E-05
  5.43616176523E-05  5.57043496083E-05  5.70802470436E-05  5.84901291456E-05
  5.99348353355E-05  6.14152257683E-05  6.29321818448E-05  6.44866067363E-05
  6.60794259227E-05  6.77115877430E-05  6.93840639603E-05  7.10978503401E-05
  7.28539672435E-05  7.46534602344E-05  7.64974007022E-05  7.83868864995E-05
  8.03230425961E-05  8.23070217482E-05  8.43400051854E-05  8.64232033135E-05
  8.85578564353E-05  9.07452354892E-05  9.29866428058E-05  9.52834128831E-05
  9.76369131814E-05  1.00048544937E-04  1.02519743997E-04  1.05051981674E-04
  1.07646765621E-04  1.10305640732E-04  1.13030190058E-04  1.15822035752E-04
  1.18682840035E-04  1.21614306184E-04  1.24618179547E-04  1.27696248582E-04
  1.30850345922E-04  1.34082349466E-04  1.37394183498E-04  1.40787819830E-04
  1.44265278980E-04  1.47828631371E-04  1.51479998566E-04  1.55221554530E-04
  1.59055526927E-04  1.62984198442E-04  1.67009908144E-04  1.71135052875E-04
  1.75362088681E-04  1.79693532271E-04  1.84131962518E-04  1.88680021993E-04
  1.93340418536E-04  1.98115926874E-04  2.03009390268E-04  2.08023722207E-04
  2.13161908146E-04  2.18427007277E-04  2.23822154357E-04  2.29350561569E-04
  2.35015520440E-04  2.40820403795E-04  2.46768667769E-04  2.52863853862E-04
  2.59109591053E-04  2.65509597952E-04  2.72067685021E-04  2.78787756841E-04
  2.85673814435E-04  2.92729957652E-04  2.99960387606E-04  3.07369409180E-04
  3.14961433586E-04  3.22740980996E-04  3.30712683227E-04  3.38881286502E-04
  3.47251654279E-04  3.55828770140E-04  3.64617740762E-04  3.73623798959E-04
  3.82852306793E-04  3.92308758771E-04  4.01998785113E-04  4.11928155105E-04
  4.22102780536E-04  4.32528719215E-04  4.43212178580E-04  4.54159519391E-04
  4.65377259520E-04  4.76872077830E-04  4.88650818152E-04  5.00720493361E-04
  5.13088289547E-04  5.25761570298E-04  5.38747881085E-04  5.52054953748E-04
  5.65690711105E-04  5.79663271669E-04  5.93980954480E-04  6.08652284055E-04
  6.23685995471E-04  6.39091039560E-04  6.54876588237E-04  6.71052039966E-04
  6.87627025353E-04  7.04611412880E-04  7.22015314778E-04  7.39849093053E-04
  7.58123365651E-04  7.76849012783E-04  7.96037183398E-04  8.15699301828E-04
  8.35847074584E-04  8.56492497326E-04  8.77647862010E-04  8.99325764201E-04
  9.21539110577E-04  9.44301126608E-04  9.67625364436E-04  9.91525710937E-04
  1.01601639600E-03  1.04111200098E-03  1.06682746740E-03  1.09317810585E-03
  1.12017960506E-03  1.14784804131E-03  1.17619988793E-03  1.20525202516E-03
  1.23502175018E-03  1.26552678741E-03  1.29678529906E-03  1.32881589595E-03
  1.36163764858E-03  1.39527009850E-03  1.42973326993E-03  1.46504768170E-03
  1.50123435943E-03  1.53831484811E-03  1.57631122486E-03  1.61524611211E-03
  1.65514269108E-03  1.69602471555E-03  1.73791652603E-03  1.78084306422E-03
  1.82482988791E-03  1.86990318614E-03  1.91608979483E-03  1.96341721277E-03
  2.01191361792E-03  2.06160788429E-03  2.11252959903E-03  2.16470908012E-03
  2.21817739440E-03  2.27296637604E-03  2.32910864553E-03  2.38663762908E-03
  2.44558757851E-03  2.50599359170E-03  2.56789163342E-03  2.63131855676E-03
  2.69631212512E-03  2.76291103461E-03  2.83115493716E-03  2.90108446411E-03
  2.97274125037E-03  3.04616795926E-03  3.12140830785E-03  3.19850709306E-03
  3.27751021825E-03  3.35846472064E-03  3.44141879924E-03  3.52642184359E-03
  3.61352446312E-03  3.70277851736E-03  3.79423714674E-03  3.88795480426E-03
  3.98398728793E-03  4.08239177394E-03  4.18322685076E-03  4.28655255397E-03
  4.39243040206E-03  4.50092343299E-03  4.61209624178E-03  4.72601501895E-03
  4.84274758992E-03  4.96236345539E-03  5.08493383274E-03  5.21053169841E-03
  5.33923183136E-03  5.47111085759E-03  5.60624729578E-03  5.74472160398E-03
  5.88661622760E-03  6.03201564842E-03  6.18100643494E-03  6.33367729388E-03
  6.49011912304E-03  6.65042506538E-03  6.81469056449E-03  6.98301342144E-03
  7.15549385295E-03  7.33223455111E-03  7.51334074453E-03  7.69892026092E-03
  7.88908359136E-03  8.08394395607E-03  8.28361737178E-03  8.48822272087E-03
  8.69788182207E-03  8.91271950308E-03  9.13286367480E-03  9.35844540757E-03
  9.58959900914E-03  9.82646210466E-03  1.00691757186E-02  1.03178843589E-02
  1.05727361026E-02  1.08338826843E-02  1.11014795866E-02  1.13756861324E-02
  1.16566655799E-02  1.19445852197E-02  1.22396164746E-02  1.25419350015E-02
  1.28517207961E-02  1.31691582997E-02  1.34944365097E-02  1.38277490915E-02
  1.41692944941E-02  1.45192760681E-02  1.48779021870E-02  1.52453863710E-02
  1.56219474144E-02  1.60078095155E-02  1.64032024105E-02  1.68083615101E-02
  1.72235280394E-02  1.76489491819E-02  1.80848782267E-02  1.85315747189E-02
  1.89893046145E-02  1.94583404385E-02  1.99389614473E-02  2.04314537950E-02
  2.09361107038E-02  2.14532326382E-02  2.19831274843E-02  2.25261107332E-02
  2.30825056683E-02  2.36526435583E-02  2.42368638542E-02  2.48355143914E-02
  2.54489515969E-02  2.60775407013E-02  2.67216559566E-02  2.73816808587E-02
  2.80580083760E-02  2.87510411828E-02  2.94611919001E-02  3.01888833400E-02
  3.09345487585E-02  3.16986321128E-02  3.24815883260E-02  3.32838835577E-02
  3.41059954815E-02  3.49484135699E-02  3.58116393851E-02  3.66961868779E-02
  3.76025826938E-02  3.85313664863E-02  3.94830912386E-02  4.04583235921E-02
  4.14576441849E-02  4.24816479962E-02  4.35309447017E-02  4.46061590359E-02
  4.57079311641E-02  4.68369170638E-02  4.79937889153E-02  4.91792355015E-02
  5.03939626184E-02  5.16386934951E-02  5.29141692244E-02  5.42211492042E-02
  5.55604115896E-02  5.69327537558E-02  5.83389927736E-02  5.97799658951E-02
  6.12565310527E-02  6.27695673697E-02  6.43199756838E-02  6.59086790832E-02
  6.75366234565E-02  6.92047780559E-02  7.09141360739E-02  7.26657152349E-02
  7.44605584012E-02  7.62997341937E-02  7.81843376283E-02  8.01154907677E-02
  8.20943433897E-02  8.41220736714E-02  8.61998888911E-02  8.83290261467E-02
  9.05107530925E-02  9.27463686939E-02  9.50372040006E-02  9.73846229394E-02
  9.97900231260E-02  1.02254836697E-01  1.04780531164E-01  1.07368610283E-01
  1.10020614957E-01  1.12738124147E-01  1.15522755813E-01  1.18376167882E-01
  1.21300059229E-01  1.24296170692E-01  1.27366286108E-01  1.30512233374E-01
  1.33735885539E-01  1.37039161912E-01  1.40424029211E-01  1.43892502732E-01
  1.47446647550E-01  1.51088579744E-01  1.54820467664E-01  1.58644533215E-01
  1.62563053186E-01  1.66578360599E-01  1.70692846106E-01  1.74908959405E-01
  1.79229210702E-01  1.83656172207E-01  1.88192479660E-01  1.92840833908E-01
  1.97604002505E-01  2.02484821367E-01  2.07486196455E-01  2.12611105507E-01
  2.17862599813E-01  2.23243806029E-01  2.28757928038E-01  2.34408248860E-01
  2.40198132607E-01  2.46131026482E-01  2.52210462837E-01  2.58440061269E-01
  2.64823530782E-01  2.71364671992E-01  2.78067379391E-01  2.84935643662E-01
  2.91973554060E-01  2.99185300845E-01  3.06575177776E-01  3.14147584667E-01
  3.21907030008E-01  3.29858133650E-01  3.38005629551E-01  3.46354368601E-01
  3.54909321505E-01  3.63675581746E-01  3.72658368615E-01  3.81863030320E-01
  3.91295047169E-01  4.00960034834E-01  4.10863747695E-01  4.21012082263E-01
  4.31411080695E-01  4.42066934388E-01  4.52985987667E-01  4.64174741562E-01
  4.75639857679E-01  4.87388162164E-01  4.99426649769E-01  5.11762488019E-01
  5.24403021473E-01  5.37355776103E-01  5.50628463773E-01  5.64228986828E-01
  5.78165442803E-01  5.92446129240E-01  6.07079548632E-01  6.22074413483E-01
  6.37439651496E-01  6.53184410888E-01  6.69318065837E-01  6.85850222063E-01
  7.02790722548E-01  7.20149653395E-01  7.37937349834E-01  7.56164402375E-01
  7.74841663114E-01  7.93980252193E-01  8.13591564422E-01  8.33687276063E-01
  8.54279351782E-01  8.75380051771E-01  8.97001939049E-01  9.19157886944E-01
  9.41861086751E-01  9.65125055594E-01  9.88963644467E-01  1.01339104649E+00
  1.03842180533E+00  1.06407082393E+00  1.09035337328E+00  1.11728510160E+00
  1.14488204361E+00  1.17316063008E+00  1.20213769765E+00  1.23183049878E+00
  1.26225671210E+00  1.29343445289E+00  1.32538228387E+00  1.35811922628E+00
  1.39166477117E+00  1.42603889102E+00  1.46126205163E+00  1.49735522431E+00
  1.53433989835E+00  1.57223809383E+00  1.61107237475E+00  1.65086586241E+00
  1.69164224921E+00  1.73342581277E+00  1.77624143034E+00  1.82011459367E+00
  1.86507142413E+00
  </PP_RAB>
</PP_MESH>


<PP_LOCAL>
  1.28485798670E+00  1.28485796129E+00  1.28485793655E+00  1.28485791247E+00
  1.28485788902E+00  1.28485786621E+00  1.28485784401E+00  1.28485782242E+00
  1.28485780143E+00  1.28485778102E+00  1.28485776118E+00  1.28485774191E+00
  1.28485772320E+00  1.28485770503E+00  1.28485768740E+00  1.28485767030E+00
  1.28485765373E+00  1.28485763767E+00  1.28485762211E+00  1.28485760707E+00
  1.28485759252E+00  1.28485757846E+00  1.28485756489E+00  1.28485755180E+00
  1.28485753919E+00  1.28485752705E+00  1.28485751539E+00  1.28485750420E+00
  1.28485749348E+00  1.28485748323E+00  1.28485747344E+00  1.28485746412E+00
  1.28485745526E+00  1.28485744687E+00  1.28485743895E+00  1.28485743151E+00
  1.28485742453E+00  1.28485741803E+00  1.28485741201E+00  1.28485740648E+00
  1.28485740144E+00  1.28485739689E+00  1.28485739285E+00  1.28485738932E+00
  1.28485738631E+00  1.28485738382E+00  1.28485738188E+00  1.28485738048E+00
  1.28485737965E+00  1.28485737939E+00  1.28485737972E+00  1.28485738065E+00
  1.28485738220E+00  1.28485738438E+00  1.28485738723E+00  1.28485739074E+00
  1.28485739495E+00  1.28485739988E+00  1.28485740555E+00  1.28485741198E+00
  1.28485741921E+00  1.28485742725E+00  1.28485743615E+00  1.28485744593E+00
  1.28485745663E+00  1.28485746828E+00  1.28485748092E+00  1.28485749459E+00
  1.28485750932E+00  1.28485752518E+00  1.28485754219E+00  1.28485756042E+00
  1.28485757990E+00  1.28485760071E+00  1.28485762289E+00  1.28485764651E+00
  1.28485767162E+00  1.28485769830E+00  1.28485772662E+00  1.28485775665E+00
  1.28485778847E+00  1.28485782217E+00  1.28485785782E+00  1.28485789553E+00
  1.28485793538E+00  1.28485797748E+00  1.28485802193E+00  1.28485806885E+00
  1.28485811835E+00  1.28485817056E+00  1.28485822561E+00  1.28485828362E+00
  1.28485834475E+00  1.28485840915E+00  1.28485847697E+00  1.28485854838E+00
  1.28485862356E+00  1.28485870268E+00  1.28485878594E+00  1.28485887354E+00
  1.28485896570E+00  1.28485906264E+00  1.28485916459E+00  1.28485927179E+00
  1.28485938451E+00  1.28485950302E+00  1.28485962760E+00  1.28485975855E+00
  1.28485989619E+00  1.28486004084E+00  1.28486019286E+00  1.28486035260E+00
  1.28486052045E+00  1.28486069681E+00  1.28486088209E+00  1.28486107675E+00
  1.28486128124E+00  1.28486149606E+00  1.28486172170E+00  1.28486195872E+00
  1.28486220767E+00  1.28486246914E+00  1.28486274376E+00  1.28486303217E+00
  1.28486333506E+00  1.28486365315E+00  1.28486398718E+00  1.28486433795E+00
  1.28486470629E+00  1.28486509307E+00  1.28486549919E+00  1.28486592563E+00
  1.28486637337E+00  1.28486684348E+00  1.28486733706E+00  1.28486785527E+00
  1.28486839933E+00  1.28486897052E+00  1.28486957016E+00  1.28487019968E+00
  1.28487086054E+00  1.28487155428E+00  1.28487228252E+00  1.28487304697E+00
  1.28487384940E+00  1.28487469167E+00  1.28487557576E+00  1.28487650369E+00
  1.28487747764E+00  1.28487849984E+00  1.28487957266E+00  1.28488069857E+00
  1.28488188016E+00  1.28488312016E+00  1.28488442139E+00  1.28488578684E+00
  1.28488721963E+00  1.28488872302E+00  1.28489030043E+00  1.28489195543E+00
  1.28489369177E+00  1.28489551336E+00  1.28489742430E+00  1.28489942888E+00
  1.28490153157E+00  1.28490373706E+00  1.28490605023E+00  1.28490847622E+00
  1.28491102035E+00  1.28491368821E+00  1.28491648561E+00  1.28491941865E+00
  1.28492249366E+00  1.28492571725E+00  1.28492909632E+00  1.28493263805E+00
  1.28493634992E+00  1.28494023973E+00  1.28494431558E+00  1.28494858590E+00
  1.28495305945E+00  1.28495774535E+00  1.28496265303E+00  1.28496779229E+00
  1.28497317331E+00  1.28497880660E+00  1.28498470305E+00  1.28499087392E+00
  1.28499733083E+00  1.28500408577E+00  1.28501115110E+00  1.28501853953E+00
  1.28502626411E+00  1.28503433824E+00  1.28504277563E+00  1.28505159030E+00
  1.28506079654E+00  1.28507040888E+00  1.28508044207E+00  1.28509091103E+00
  1.28510183078E+00  1.28511321644E+00  1.28512508307E+00  1.28513744569E+00
  1.28515031912E+00  1.28516371791E+00  1.28517765620E+00  1.28519214763E+00
  1.28520720511E+00  1.28522284074E+00  1.28523906552E+00  1.28525588921E+00
  1.28527332002E+00  1.28529136436E+00  1.28531002652E+00  1.28532930829E+00
  1.28534920861E+00  1.28536972305E+00  1.28539084341E+00  1.28541255707E+00
  1.28543484641E+00  1.28545768810E+00  1.28548105236E+00  1.28550490204E+00
  1.28552919171E+00  1.28555386656E+00  1.28557886122E+00  1.28560409845E+00
  1.28562948764E+00  1.28565492324E+00  1.28568028290E+00  1.28570542549E+00
  1.28573018889E+00  1.28575438752E+00  1.28577780962E+00  1.28580021423E+00
  1.28582132790E+00  1.28584084094E+00  1.28585840338E+00  1.28587362048E+00
  1.28588604772E+00  1.28589518532E+00  1.28590047220E+00  1.28590127923E+00
  1.28589690189E+00  1.28588655209E+00  1.28586934922E+00  1.28584431020E+00
  1.28581033864E+00  1.28576621275E+00  1.28571057217E+00  1.28564190338E+00
  1.28555852367E+00  1.28545856355E+00  1.28533994736E+00  1.28520037197E+00
  1.28503728341E+00  1.28484785118E+00  1.28462894006E+00  1.28437707918E+00
  1.28408842812E+00  1.28375873973E+00  1.28338331941E+00  1.28295698055E+00
  1.28247399577E+00  1.28192804358E+00  1.28131215008E+00  1.28061862542E+00
  1.27983899432E+00  1.27896392040E+00  1.27798312384E+00  1.27688529165E+00
  1.27565798023E+00  1.27428750959E+00  1.27275884861E+00  1.27105549083E+00
  1.26915932017E+00  1.26705046595E+00  1.26470714673E+00  1.26210550238E+00
  1.25921941389E+00  1.25602031060E+00  1.25247696443E+00  1.24855527099E+00
  1.24421801755E+00  1.23942463809E+00  1.23413095594E+00  1.22828891475E+00
  1.22184629919E+00  1.21474644709E+00  1.20692795535E+00  1.19832438301E+00
  1.18886395535E+00  1.17846927434E+00  1.16705704183E+00  1.15453780348E+00
  1.14081572317E+00  1.12578839963E+00  1.10934673945E+00  1.09137490328E+00
  1.07175034502E+00  1.05034396738E+00  1.02702042071E+00  1.00163857640E+00
  9.74052210369E-01  9.44110936989E-01  9.11661438571E-01  8.76549040182E-01
  8.38619684150E-01  7.97722362314E-01  7.53712066827E-01  7.06453321346E-01
  6.55824353055E-01  6.01721961254E-01  5.44067129084E-01  4.82811410017E-01
  4.17944098498E-01  3.49500162894E-01  2.77568876791E-01  2.02303029878E-01
  1.23928530334E-01  4.27541254232E-02 -4.08191349396E-02 -1.26289185281E-01
 -2.13045608959E-01 -3.00364450145E-01 -3.87406091077E-01 -4.73217252730E-01
 -5.56738295693E-01 -6.36817074660E-01 -7.12230609199E-01 -7.81715744532E-01
 -8.44009753555E-01 -8.97901436776E-01 -9.42292670208E-01 -9.76269493346E-01
 -9.99180682044E-01 -1.01072027492E+00 -1.01100866619E+00 -1.00066455985E+00
 -9.80857146397E-01 -9.53324031429E-01 -9.20335224858E-01 -8.84576105513E-01
 -8.48911575798E-01 -8.15978166187E-01 -7.87529083547E-01 -7.63427851452E-01
 -7.41319734827E-01 -7.20361606645E-01 -7.00437833930E-01 -6.81444381948E-01
 -6.63288666873E-01 -6.45889053549E-01 -6.29174107879E-01 -6.13081701396E-01
 -5.97558047765E-01 -5.82556731755E-01 -5.68037773308E-01 -5.53966754234E-01
 -5.40314023090E-01 -5.27053985024E-01 -5.14164477120E-01 -5.01626225778E-01
 -4.89422380192E-01 -4.77538114726E-01 -4.65960292532E-01 -4.54677182813E-01
 -4.43678224534E-01 -4.32953829971E-01 -4.22495222131E-01 -4.12294300792E-01
 -4.02343532554E-01 -3.92635860934E-01 -3.83164633091E-01 -3.73923540295E-01
 -3.64906569678E-01 -3.56107965229E-01 -3.47522196297E-01 -3.39143932186E-01
 -3.30968021661E-01 -3.22989476388E-01 -3.15203457524E-01 -3.07605264800E-01
 -3.00190327589E-01 -2.92954197521E-01 -2.85892542325E-01 -2.79001140622E-01
 -2.72275877461E-01 -2.65712740427E-01 -2.59307816208E-01 -2.53057287498E-01
 -2.46957430177E-01 -2.41004610705E-01 -2.35195283687E-01 -2.29525989561E-01
 -2.23993352413E-01 -2.18594077873E-01 -2.13324951090E-01 -2.08182834779E-01
 -2.03164667325E-01 -1.98267460940E-01 -1.93488299877E-01 -1.88824338679E-01
 -1.84272800490E-01 -1.79830975388E-01 -1.75496218779E-01 -1.71265949815E-01
 -1.67137649862E-01 -1.63108860995E-01 -1.59177184537E-01 -1.55340279629E-01
 -1.51595861842E-01 -1.47941701807E-01 -1.44375623897E-01 -1.40895504925E-01
 -1.37499272885E-01 -1.34184905714E-01 -1.30950430091E-01 -1.27793920260E-01
 -1.24713496887E-01 -1.21707325936E-01 -1.18773617582E-01 -1.15910625141E-01
 -1.13116644034E-01 -1.10390010768E-01 -1.07729101949E-01 -1.05132333317E-01
 -1.02598158794E-01 -1.00125069576E-01 -9.77115932232E-02 -9.53562927912E-02
 -9.30577659717E-02 -9.08146442586E-02 -8.86255921329E-02 -8.64893062681E-02
 -8.44045147536E-02 -8.23699763381E-02 -8.03844796898E-02 -7.84468426757E-02
 -7.65559116577E-02 -7.47105608058E-02 -7.29096914276E-02 -7.11522313141E-02
 -6.94371341018E-02 -6.77633786491E-02 -6.61299684290E-02 -6.45359309349E-02
 -6.29803171024E-02 -6.14622007441E-02 -5.99806779975E-02 -5.85348667879E-02
 -5.71239063022E-02 -5.57469564772E-02 -5.44031974990E-02 -5.30918293149E-02
 -5.18120711573E-02 -5.05631610787E-02 -4.93443554979E-02 -4.81549287576E-02
 -4.69941726921E-02 -4.58613962058E-02 -4.47559248617E-02 -4.36771004799E-02
 -4.26242807454E-02 -4.15968388264E-02 -4.05941630003E-02 -3.96156562900E-02
 -3.86607361081E-02 -3.77288339105E-02 -3.68193948575E-02 -3.59318774837E-02
 -3.50657533753E-02 -3.42205068560E-02 -3.33956346794E-02 -3.25906457298E-02
 -3.18050607298E-02 -3.10384119545E-02 -3.02902429536E-02 -2.95601082791E-02
 -2.88475732206E-02 -2.81522135460E-02 -2.74736152493E-02 -2.68113743040E-02
 -2.61650964224E-02
</PP_LOCAL>


<PP_NONLOCAL>
  <PP_DIJ>
    0                  Number of nonzero Dij
  </PP_DIJ>
</PP_NONLOCAL>


<PP_PSWFC>
3s    0  1.00          Wavefunction
  5.55929398506E-05  5.69660854649E-05  5.83731477759E-05  5.98149645260E-05
  6.12923941731E-05  6.28063163636E-05  6.43576324605E-05  6.59472660962E-05
  6.75761637165E-05  6.92452951442E-05  7.09556541571E-05  7.27082590795E-05
  7.45041533887E-05  7.63444063357E-05  7.82301135826E-05  8.01623978546E-05
  8.21424096084E-05  8.41713277174E-05  8.62503601735E-05  8.83807448063E-05
  9.05637500202E-05  9.28006755497E-05  9.50928532332E-05  9.74416478059E-05
  9.98484577126E-05  1.02314715940E-04  1.04841890871E-04  1.07431487157E-04
  1.10085046616E-04  1.12804149150E-04  1.15590413683E-04  1.18445499131E-04