
     Program PWSCF v.5.0        starts on 20Aug2013 at 10: 8:43 

     This program is part of the open-source Quantum ESPRESSO suite
     for quantum simulation of materials; please cite
         "P. Giannozzi et al., J. Phys.:Condens. Matter 21 395502 (2009);
          URL http://www.quantum-espresso.org", 
     in publications or presentations arising from this work. More details at
     http://www.quantum-espresso.org/quote.php

     Parallel version (MPI), running on     1 processors

     Current dimensions of program PWSCF are:
     Max number of different atomic species (ntypx) = 10
     Max number of k-points (npk) =  40000
     Max angular momentum in pseudopotentials (lmaxx) =  3
     Waiting for input...
     Reading input from standard input

     Subspace diagonalization in iterative solution of the eigenvalue problem:
     a serial algorithm will be used

 kpoint style unhandled: 
 none                                                                           
  
 
     G-vector sticks info
     --------------------
     sticks:   dense  smooth     PW     G-vecs:    dense   smooth      PW
     Sum        1789     889    265                49805    17573    2891
 

     Title: 
     zincblende                                                                 


     bravais-lattice index     =            2
     lattice parameter (alat)  =      10.0652  a.u.
     unit-cell volume          =     254.9255 (a.u.)^3
     number of atoms/cell      =            2
     number of atomic types    =            2
     number of electrons       =        18.00
     number of Kohn-Sham states=            9
     kinetic-energy cutoff     =      64.0000  Ry
     charge density cutoff     =     512.0000  Ry
     convergence threshold     =      1.0E-12
     mixing beta               =       0.7000
     number of iterations used =            8  plain     mixing
     Exchange-correlation      =  SLA  PW   PBE  PBE ( 1 4 3 4 0)
     EXX-fraction              =        0.00

     celldm(1)=  10.065247  celldm(2)=   0.000000  celldm(3)=   0.000000
     celldm(4)=   0.000000  celldm(5)=   0.000000  celldm(6)=   0.000000

     crystal axes: (cart. coord. in units of alat)
               a(1) = (  -0.500000   0.000000   0.500000 )  
               a(2) = (   0.000000   0.500000   0.500000 )  
               a(3) = (  -0.500000   0.500000   0.000000 )  

     reciprocal axes: (cart. coord. in units 2 pi/alat)
               b(1) = ( -1.000000 -1.000000  1.000000 )  
               b(2) = (  1.000000  1.000000  1.000000 )  
               b(3) = ( -1.000000  1.000000 -1.000000 )  


     PseudoPot. # 1 for Zn read from file:
     ./pseudo/Zn.pbe-van.UPF
     MD5 check sum: 8a117cd81793830d6ad9bd6443d05479
     Pseudo is Ultrasoft, Zval = 12.0
     Generated by new atomic code, or converted to UPF format
     Using radial grid of  869 points,  6 beta functions with: 
                l(1) =   0
                l(2) =   0
                l(3) =   1
                l(4) =   1
                l(5) =   2
                l(6) =   2
     Q(r) pseudized with  8 coefficients,  rinner =    0.800   0.800   0.800
                                                       0.800   0.800

     PseudoPot. # 2 for S  read from file:
     ./pseudo/S.pbe-van_bm.UPF
     MD5 check sum: 5981569f150ce26f656387b858196b6a
     Pseudo is Ultrasoft, Zval =  6.0
     Generated by new atomic code, or converted to UPF format
     Using radial grid of  811 points,  6 beta functions with: 
                l(1) =   0
                l(2) =   0
                l(3) =   1
                l(4) =   1
                l(5) =   2
                l(6) =   2
     Q(r) pseudized with  8 coefficients,  rinner =    1.100   1.100   1.100
                                                       1.100   1.100

     atomic species   valence    mass     pseudopotential
        Zn            12.00    65.41000     Zn( 1.00)
        S              6.00    32.07000     S ( 1.00)

     24 Sym. Ops. (no inversion) found (18 have fractional translation)



   Cartesian axes

     site n.     atom                  positions (alat units)
         1           Zn  tau(   1) = (   0.1250000  -0.1250000  -0.1250000  )
         2           S   tau(   2) = (  -0.1250000   0.1250000   0.1250000  )

     number of k points=    29
                       cart. coord. in units 2pi/alat
        k(    1) = (   0.0000000   0.0000000   0.0000000), wk =   0.0039062
        k(    2) = (  -0.1250000   0.1250000  -0.1250000), wk =   0.0312500
        k(    3) = (  -0.2500000   0.2500000  -0.2500000), wk =   0.0312500
        k(    4) = (  -0.3750000   0.3750000  -0.3750000), wk =   0.0312500
        k(    5) = (   0.5000000  -0.5000000   0.5000000), wk =   0.0156250
        k(    6) = (   0.0000000   0.2500000   0.0000000), wk =   0.0234375
        k(    7) = (  -0.1250000   0.3750000  -0.1250000), wk =   0.0937500
        k(    8) = (  -0.2500000   0.5000000  -0.2500000), wk =   0.0937500
        k(    9) = (   0.6250000  -0.3750000   0.6250000), wk =   0.0937500
        k(   10) = (   0.5000000  -0.2500000   0.5000000), wk =   0.0937500
        k(   11) = (   0.3750000  -0.1250000   0.3750000), wk =   0.0937500
        k(   12) = (   0.2500000   0.0000000   0.2500000), wk =   0.0468750
        k(   13) = (   0.0000000   0.5000000   0.0000000), wk =   0.0234375
        k(   14) = (  -0.1250000   0.6250000  -0.1250000), wk =   0.0937500
        k(   15) = (   0.7500000  -0.2500000   0.7500000), wk =   0.0937500
        k(   16) = (   0.6250000  -0.1250000   0.6250000), wk =   0.0937500
        k(   17) = (   0.5000000   0.0000000   0.5000000), wk =   0.0468750
        k(   18) = (   0.0000000   0.7500000   0.0000000), wk =   0.0234375
        k(   19) = (   0.8750000  -0.1250000   0.8750000), wk =   0.0937500
        k(   20) = (   0.7500000   0.0000000   0.7500000), wk =   0.0468750
        k(   21) = (   0.0000000  -1.0000000   0.0000000), wk =   0.0117188
        k(   22) = (  -0.2500000   0.5000000   0.0000000), wk =   0.0937500
        k(   23) = (   0.6250000  -0.3750000   0.8750000), wk =   0.1875000
        k(   24) = (   0.5000000  -0.2500000   0.7500000), wk =   0.0937500
        k(   25) = (   0.7500000  -0.2500000   1.0000000), wk =   0.0937500
        k(   26) = (   0.6250000  -0.1250000   0.8750000), wk =   0.1875000
        k(   27) = (   0.5000000   0.0000000   0.7500000), wk =   0.0937500
        k(   28) = (  -0.2500000  -1.0000000   0.0000000), wk =   0.0468750
        k(   29) = (  -0.5000000  -1.0000000   0.0000000), wk =   0.0234375

     Dense  grid:    49805 G-vectors     FFT dimensions: (  54,  54,  54)

     Smooth grid:    17573 G-vectors     FFT dimensions: (  40,  40,  40)

     Largest allocated arrays     est. size (Mb)     dimensions
        Kohn-Sham Wavefunctions         0.31 Mb     (   2229,    9)
        NL pseudopotentials             1.22 Mb     (   2229,   36)
        Each V/rho on FFT grid          2.40 Mb     ( 157464)
        Each G-vector array             0.38 Mb     (  49805)
        G-vector shells                 0.00 Mb     (    440)
     Largest temporary arrays     est. size (Mb)     dimensions
        Auxiliary wavefunctions         1.22 Mb     (   2229,   36)
        Each subspace H/S matrix        0.02 Mb     (  36,  36)
        Each <psi_i|beta_j> matrix      0.00 Mb     (     36,    9)
        Arrays for rho mixing          19.22 Mb     ( 157464,   8)

     Initial potential from superposition of free atoms

     starting charge   17.99982, renormalised to   18.00000
     Starting wfc are   10 randomized atomic wfcs

     total cpu time spent up to now is        5.7 secs

     per-process dynamical memory:    38.8 Mb

     Self-consistent Calculation

     iteration #  1     ecut=    64.00 Ry     beta=0.70
     Davidson diagonalization with overlap
     ethr =  1.00E-02,  avg # of iterations =  1.9

     Threshold (ethr) on eigenvalues was too large:
     Diagonalizing with lowered threshold

     Davidson diagonalization with overlap
     ethr =  5.75E-04,  avg # of iterations =  1.9

     total cpu time spent up to now is       12.6 secs

     total energy              =    -147.13243188 Ry
     Harris-Foulkes estimate   =    -147.20213952 Ry
     estimated scf accuracy    <       0.10019176 Ry

     iteration #  2     ecut=    64.00 Ry     beta=0.70
     Davidson diagonalization with overlap
     ethr =  5.57E-04,  avg # of iterations =  2.2

     total cpu time spent up to now is       17.1 secs

     total energy              =    -147.15707044 Ry
     Harris-Foulkes estimate   =    -147.19187973 Ry
     estimated scf accuracy    <       0.06287868 Ry

     iteration #  3     ecut=    64.00 Ry     beta=0.70
     Davidson diagonalization with overlap
     ethr =  3.49E-04,  avg # of iterations =  2.0

     total cpu time spent up to now is       21.5 secs

     total energy              =    -147.17175489 Ry
     Harris-Foulkes estimate   =    -147.17276110 Ry
     estimated scf accuracy    <       0.00212023 Ry

     iteration #  4     ecut=    64.00 Ry     beta=0.70
     Davidson diagonalization with overlap
     ethr =  1.18E-05,  avg # of iterations =  2.1

     total cpu time spent up to now is       25.7 secs

     total energy              =    -147.17233238 Ry
     Harris-Foulkes estimate   =    -147.17237289 Ry
     estimated scf accuracy    <       0.00019580 Ry

     iteration #  5     ecut=    64.00 Ry     beta=0.70
     Davidson diagonalization with overlap
     ethr =  1.09E-06,  avg # of iterations =  2.0

     total cpu time spent up to now is       29.9 secs

     total energy              =    -147.17235878 Ry
     Harris-Foulkes estimate   =    -147.17235982 Ry
     estimated scf accuracy    <       0.00000366 Ry

     iteration #  6     ecut=    64.00 Ry     beta=0.70
     Davidson diagonalization with overlap
     ethr =  2.03E-08,  avg # of iterations =  3.0

     total cpu time spent up to now is       34.5 secs

     total energy              =    -147.17236021 Ry
     Harris-Foulkes estimate   =    -147.17236023 Ry
     estimated scf accuracy    <       0.00000041 Ry

     iteration #  7     ecut=    64.00 Ry     beta=0.70
     Davidson diagonalization with overlap
     ethr =  2.26E-09,  avg # of iterations =  2.9

     total cpu time spent up to now is       38.8 secs

     total energy              =    -147.17236031 Ry
     Harris-Foulkes estimate   =    -147.17236036 Ry
     estimated scf accuracy    <       0.00000013 Ry

     iteration #  8     ecut=    64.00 Ry     beta=0.70
     Davidson diagonalization with overlap
     ethr =  7.35E-10,  avg # of iterations =  2.0

     total cpu time spent up to now is       42.9 secs

     total energy              =    -147.17236032 Ry
     Harris-Foulkes estimate   =    -147.17236032 Ry
     estimated scf accuracy    <          4.7E-09 Ry

     iteration #  9     ecut=    64.00 Ry     beta=0.70
     Davidson diagonalization with overlap
     ethr =  2.63E-11,  avg # of iterations =  2.8

     total cpu time spent up to now is       47.6 secs

     total energy              =    -147.17236032 Ry
     Harris-Foulkes estimate   =    -147.17236032 Ry
     estimated scf accuracy    <          6.9E-11 Ry

     iteration # 10     ecut=    64.00 Ry     beta=0.70
     Davidson diagonalization with overlap
     ethr =  3.85E-13,  avg # of iterations =  2.7

     total cpu time spent up to now is       52.3 secs

     total energy              =    -147.17236032 Ry
     Harris-Foulkes estimate   =    -147.17236032 Ry
     estimated scf accuracy    <          1.1E-11 Ry

     iteration # 11     ecut=    64.00 Ry     beta=0.70
     Davidson diagonalization with overlap
     ethr =  1.00E-13,  avg # of iterations =  1.1

     total cpu time spent up to now is       55.9 secs

     total energy              =    -147.17236032 Ry
     Harris-Foulkes estimate   =    -147.17236032 Ry
     estimated scf accuracy    <          1.5E-12 Ry

     iteration # 12     ecut=    64.00 Ry     beta=0.70
     Davidson diagonalization with overlap
     ethr =  1.00E-13,  avg # of iterations =  1.0

     total cpu time spent up to now is       59.4 secs

     End of self-consistent calculation

          k = 0.0000 0.0000 0.0000 (  2229 PWs)   bands (ev):

    -7.0930  -0.1376  -0.1376  -0.1376   0.4184   0.4184   6.3636   6.3636
     6.3636

          k =-0.1250 0.1250-0.1250 (  2187 PWs)   bands (ev):

    -6.9667  -0.1409  -0.1145  -0.1145   0.4164   0.4164   5.2231   6.2039
     6.2039

          k =-0.2500 0.2500-0.2500 (  2196 PWs)   bands (ev):

    -6.6352  -0.1043  -0.0638  -0.0638   0.4198   0.4198   3.4328   5.8578
     5.8578

          k =-0.3750 0.3750-0.3750 (  2208 PWs)   bands (ev):

    -6.2551  -0.0237  -0.0237   0.1068   0.4387   0.4387   1.8361   5.5500
     5.5500

          k = 0.5000-0.5000 0.5000 (  2186 PWs)   bands (ev):

    -6.0788  -0.0111  -0.0111   0.4522   0.4522   0.6183   0.7907   5.4305
     5.4305

          k = 0.0000 0.2500 0.0000 (  2189 PWs)   bands (ev):

    -6.9246  -0.1643  -0.0950  -0.0950   0.3995   0.4309   5.2933   5.9209
     5.9209

          k =-0.1250 0.3750-0.1250 (  2201 PWs)   bands (ev):

    -6.6605  -0.1630  -0.0422  -0.0415   0.3902   0.4422   3.9442   5.5139
     5.6024

          k =-0.2500 0.5000-0.2500 (  2185 PWs)   bands (ev):

    -6.2906  -0.0740   0.0065   0.0484   0.4177   0.4555   2.3778   5.1577
     5.2236

          k = 0.6250-0.3750 0.6250 (  2206 PWs)   bands (ev):

    -6.0354  -0.0168   0.0237   0.3301   0.4556   0.5724   1.1482   4.7820
     5.1838

          k = 0.5000-0.2500 0.5000 (  2213 PWs)   bands (ev):

    -6.0945  -0.0106   0.0110   0.2520   0.4279   0.4874   1.5022   4.6483
     5.4104

          k = 0.3750-0.1250 0.3750 (  2195 PWs)   bands (ev):

    -6.4177  -0.0597  -0.0307  -0.0169   0.4005   0.4519   2.8747   4.8425
     5.7998

          k = 0.2500 0.0000 0.2500 (  2201 PWs)   bands (ev):

    -6.7712  -0.1406  -0.0855  -0.0682   0.4005   0.4315   4.3274   5.4397
     6.1453

          k = 0.0000 0.5000 0.0000 (  2181 PWs)   bands (ev):

    -6.4817  -0.2114   0.0229   0.0229   0.3715   0.4609   3.7490   5.0333
     5.0333

          k =-0.1250 0.6250-0.1250 (  2204 PWs)   bands (ev):

    -6.1786  -0.1752   0.0868   0.0976   0.4092   0.4740   2.7517   4.4770
     4.6928

          k = 0.7500-0.2500 0.7500 (  2210 PWs)   bands (ev):

    -5.9218  -0.0664   0.1122   0.2247   0.4671   0.5841   1.7040   3.8153
     4.6493

          k = 0.6250-0.1250 0.6250 (  2212 PWs)   bands (ev):

    -5.8918  -0.0188   0.0931   0.3498   0.4314   0.6362   1.4616   3.4292
     4.9234

          k = 0.5000 0.0000 0.5000 (  2209 PWs)   bands (ev):

    -6.1100  -0.0070   0.0360   0.1338   0.4007   0.4817   2.2748   3.6840
     5.3907

          k = 0.0000 0.7500 0.0000 (  2209 PWs)   bands (ev):

    -5.9726  -0.2206   0.1701   0.1701   0.4469   0.4909   2.3752   4.2749
     4.2749

          k = 0.8750-0.1250 0.8750 (  2199 PWs)   bands (ev):

    -5.7939  -0.1628   0.2052   0.2256   0.4885   0.6173   1.8107   3.6892
     4.1684

          k = 0.7500 0.0000 0.7500 (  2219 PWs)   bands (ev):

    -5.7619  -0.0697   0.1747   0.2980   0.4573   0.7948   1.5333   3.0439
     4.4235

          k = 0.0000-1.0000 0.0000 (  2200 PWs)   bands (ev):

    -5.7361  -0.2109   0.2431   0.2431   0.5033   0.6440   1.6425   3.9783
     3.9783

          k =-0.2500 0.5000 0.0000 (  2194 PWs)   bands (ev):

    -6.3742  -0.1342   0.0061   0.0331   0.3912   0.4609   3.1366   4.5343
     5.3967

          k = 0.6250-0.3750 0.8750 (  2206 PWs)   bands (ev):

    -6.0554  -0.0278   0.0383   0.1767   0.4355   0.4913   2.0177   3.9925
     4.9995

          k = 0.5000-0.2500 0.7500 (  2216 PWs)   bands (ev):

    -5.9115  -0.0036   0.0635   0.3455   0.4305   0.7045   1.2381   3.8772
     4.7934

          k = 0.7500-0.2500 1.0000 (  2203 PWs)   bands (ev):

    -5.9319  -0.1191   0.1196   0.1997   0.4697   0.5182   2.1520   3.8356
     4.3123

          k = 0.6250-0.1250 0.8750 (  2214 PWs)   bands (ev):

    -5.7861  -0.0343   0.1431   0.3017   0.4332   0.7513   1.5925   3.2902
     4.1434

          k = 0.5000 0.0000 0.7500 (  2211 PWs)   bands (ev):

    -5.8411  -0.0012   0.0990   0.3375   0.4095   0.6546   1.7022   3.1767
     4.4849

          k =-0.2500-1.0000 0.0000 (  2214 PWs)   bands (ev):

    -5.7327  -0.1146   0.2050   0.2608   0.4704   0.7509   1.6096   3.6757
     3.7183

          k =-0.5000-1.0000 0.0000 (  2208 PWs)   bands (ev):

    -5.7293  -0.0067   0.1767   0.3372   0.3755   0.8580   1.5679   3.3950
     3.4829

!    total energy              =    -147.17236032 Ry
     Harris-Foulkes estimate   =    -147.17236032 Ry
     estimated scf accuracy    <          1.4E-14 Ry

     The total energy is the sum of the following terms:

     one-electron contribution =     -92.21813521 Ry
     hartree contribution      =      61.63574012 Ry
     xc contribution           =     -23.12440468 Ry
     ewald contribution        =     -93.46556056 Ry

     convergence has been achieved in  12 iterations

     Forces acting on atoms (Ry/au):

     atom    1 type  1   force =     0.00000000    0.00000000    0.00000000
     atom    2 type  2   force =     0.00000000    0.00000000    0.00000000

     Total force =     0.000000     Total SCF correction =     0.000000


     entering subroutine stress ...

          total   stress  (Ry/bohr**3)                   (kbar)     P=       54.24
   0.00036873   0.00000000   0.00000000         54.24      0.00      0.00
   0.00000000   0.00036873  -0.00000000          0.00     54.24     -0.00
   0.00000000  -0.00000000   0.00036873          0.00     -0.00     54.24


     Writing output data file ZnS.save
 
     init_run     :      2.73s CPU      5.67s WALL (       1 calls)
     electrons    :     53.13s CPU     53.65s WALL (       1 calls)
     forces       :      0.60s CPU      0.60s WALL (       1 calls)
     stress       :      2.89s CPU      2.93s WALL (       1 calls)

     Called by init_run:
     wfcinit      :      1.10s CPU      1.11s WALL (       1 calls)
     potinit      :      0.15s CPU      0.14s WALL (       1 calls)

     Called by electrons:
     c_bands      :     37.73s CPU     37.88s WALL (      13 calls)
     sum_band     :     10.44s CPU     10.54s WALL (      13 calls)
     v_of_rho     :      1.43s CPU      1.47s WALL (      13 calls)
     newd         :      3.55s CPU      3.59s WALL (      13 calls)
     mix_rho      :      0.15s CPU      0.15s WALL (      13 calls)

     Called by c_bands:
     init_us_2    :      1.20s CPU      1.08s WALL (     841 calls)
     cegterg      :     33.77s CPU     33.86s WALL (     377 calls)

     Called by *egterg:
     h_psi        :     31.95s CPU     31.92s WALL (    1208 calls)
     s_psi        :      0.72s CPU      0.75s WALL (    1208 calls)
     g_psi        :      0.16s CPU      0.18s WALL (     802 calls)
     cdiaghg      :      0.31s CPU      0.24s WALL (    1150 calls)

     Called by h_psi:
     add_vuspsi   :      0.86s CPU      0.75s WALL (    1208 calls)

     General routines
     calbec       :      1.14s CPU      1.17s WALL (    1643 calls)
     fft          :      0.97s CPU      0.99s WALL (     216 calls)
     ffts         :      0.06s CPU      0.05s WALL (      26 calls)
     fftw         :     32.32s CPU     32.47s WALL (   22125 calls)
     interpolate  :      0.18s CPU      0.19s WALL (      26 calls)
     davcio       :      0.05s CPU      0.15s WALL (    1247 calls)
 
     Parallel routines
     fft_scatter  :      1.72s CPU      1.61s WALL (   22367 calls)
     EXX routines
 
     PWSCF        :  0m59.61s CPU     1m 3.15s WALL

 
   This run was terminated on:  10: 9:46  20Aug2013            

=------------------------------------------------------------------------------=
   JOB DONE.
=------------------------------------------------------------------------------=
