
     Program PWSCF v.5.0        starts on  8Aug2012 at 11:25:57 

     This program is part of the open-source Quantum ESPRESSO suite
     for quantum simulation of materials; please cite
         "P. Giannozzi et al., J. Phys.:Condens. Matter 21 395502 (2009);
          URL http://www.quantum-espresso.org", 
     in publications or presentations arising from this work. More details at
     http://www.quantum-espresso.org/quote.php

     Parallel version (MPI), running on     1 processors

     Current dimensions of program PWSCF are:
     Max number of different atomic species (ntypx) = 10
     Max number of k-points (npk) =  40000
     Max angular momentum in pseudopotentials (lmaxx) =  3
     Waiting for input...
     Reading input from standard input

     Atomic positions and unit cell read from directory:
     ./raw/ZnS.save/
 

     Subspace diagonalization in iterative solution of the eigenvalue problem:
     a serial algorithm will be used

 kpoint style unhandled: 
 none                                                                           
  
 
     G-vector sticks info
     --------------------
     sticks:   dense  smooth     PW     G-vecs:    dense   smooth      PW
     Sum         847     847    265                16049    16049    2891
 


     bravais-lattice index     =            2
     lattice parameter (alat)  =      10.0652  a.u.
     unit-cell volume          =     254.9255 (a.u.)^3
     number of atoms/cell      =            2
     number of atomic types    =            2
     number of electrons       =        18.00
     number of Kohn-Sham states=           22
     kinetic-energy cutoff     =      60.0000  Ry
     charge density cutoff     =     240.0000  Ry
     Exchange-correlation      =  SLA  PW   PBE  PBE ( 1 4 3 4 0)
     EXX-fraction              =        0.00

     celldm(1)=  10.065247  celldm(2)=   0.000000  celldm(3)=   0.000000
     celldm(4)=   0.000000  celldm(5)=   0.000000  celldm(6)=   0.000000

     crystal axes: (cart. coord. in units of alat)
               a(1) = (  -0.500000   0.000000   0.500000 )  
               a(2) = (   0.000000   0.500000   0.500000 )  
               a(3) = (  -0.500000   0.500000   0.000000 )  

     reciprocal axes: (cart. coord. in units 2 pi/alat)
               b(1) = ( -1.000000 -1.000000  1.000000 )  
               b(2) = (  1.000000  1.000000  1.000000 )  
               b(3) = ( -1.000000  1.000000 -1.000000 )  


     PseudoPot. # 1 for Zn read from file:
     ./pseudo/Zn.pbe-van.UPF
     MD5 check sum: 8a117cd81793830d6ad9bd6443d05479
     Pseudo is Ultrasoft, Zval = 12.0
     Generated by new atomic code, or converted to UPF format
     Using radial grid of  869 points,  6 beta functions with: 
                l(1) =   0
                l(2) =   0
                l(3) =   1
                l(4) =   1
                l(5) =   2
                l(6) =   2
     Q(r) pseudized with  8 coefficients,  rinner =    0.800   0.800   0.800
                                                       0.800   0.800

     PseudoPot. # 2 for S  read from file:
     ./pseudo/S.pbe-van_bm.UPF
     MD5 check sum: 5981569f150ce26f656387b858196b6a
     Pseudo is Ultrasoft, Zval =  6.0
     Generated by new atomic code, or converted to UPF format
     Using radial grid of  811 points,  6 beta functions with: 
                l(1) =   0
                l(2) =   0
                l(3) =   1
                l(4) =   1
                l(5) =   2
                l(6) =   2
     Q(r) pseudized with  8 coefficients,  rinner =    1.100   1.100   1.100
                                                       1.100   1.100

     atomic species   valence    mass     pseudopotential
        Zn            12.00    65.41000     Zn( 1.00)
        S              6.00    32.07000     S ( 1.00)

     24 Sym. Ops. (no inversion) found (18 have fractional translation)



   Cartesian axes

     site n.     atom                  positions (alat units)
         1           Zn  tau(   1) = (   0.1250000  -0.1250000  -0.1250000  )
         2           S   tau(   2) = (  -0.1250000   0.1250000   0.1250000  )

     number of k points=   101

     Number of k-points >= 100: set verbosity='high' to print them.

     Dense  grid:    16049 G-vectors     FFT dimensions: (  36,  36,  36)

     Largest allocated arrays     est. size (Mb)     dimensions
        Kohn-Sham Wavefunctions         0.68 Mb     (   2016,   22)
        NL pseudopotentials             1.11 Mb     (   2016,   36)
        Each V/rho on FFT grid          0.71 Mb     (  46656)
        Each G-vector array             0.12 Mb     (  16049)
        G-vector shells                 0.00 Mb     (    207)
     Largest temporary arrays     est. size (Mb)     dimensions
        Auxiliary wavefunctions         2.71 Mb     (   2016,   88)
        Each subspace H/S matrix        0.12 Mb     (  88,  88)
        Each <psi_i|beta_j> matrix      0.01 Mb     (     36,   22)

     The potential is recalculated from file :
     ./raw/ZnS.save/charge-density.dat

     Starting wfc are   10 randomized atomic wfcs

     total cpu time spent up to now is        1.3 secs

     per-process dynamical memory:    25.7 Mb

     Band Structure Calculation
     Davidson diagonalization with overlap

     ethr =  5.56E-15,  avg # of iterations = 26.5

     total cpu time spent up to now is      145.0 secs

     End of band structure calculation

          k = 0.0000 0.0000 0.0000     band energies (ev):

    -7.0664  -0.1351  -0.1351  -0.1351   0.4240   0.4240   6.3903   6.3903
     6.3903   8.6784  12.7063  12.7063  12.7063  18.0382  18.0382  18.5058
    21.0541  21.0541  21.0541  24.2879  32.1975  32.1975

          k =-0.0100-0.0100 0.0100     band energies (ev):

    -7.0656  -0.1352  -0.1350  -0.1350   0.4240   0.4240   6.3796   6.3892
     6.3892   8.6873  12.7050  12.7082  12.7082  18.0322  18.0322  18.5128
    21.0459  21.0644  21.0644  24.3012  32.1775  32.1871

          k =-0.0200-0.0200 0.0200     band energies (ev):

    -7.0631  -0.1353  -0.1345  -0.1345   0.4239   0.4239   6.3481   6.3858
     6.3858   8.7133  12.7013  12.7141  12.7141  18.0146  18.0146  18.5336
    21.0216  21.0949  21.0949  24.3405  32.1187  32.1558

          k =-0.0300-0.0300 0.0300     band energies (ev):

    -7.0589  -0.1355  -0.1337  -0.1337   0.4238   0.4238   6.2972   6.3803
     6.3803   8.7548  12.6953  12.7238  12.7238  17.9862  17.9862  18.5680
    20.9828  21.1448  21.1448  24.4046  32.0246  32.1035

          k =-0.0400-0.0400 0.0400     band energies (ev):

    -7.0531  -0.1358  -0.1326  -0.1326   0.4237   0.4237   6.2290   6.3725
     6.3725   8.8098  12.6876  12.7372  12.7372  17.9481  17.9481  18.6153
    20.9315  21.2130  21.2130  24.4916  31.9001  32.0299

          k =-0.0500-0.0500 0.0500     band energies (ev):

    -7.0457  -0.1361  -0.1312  -0.1312   0.4235   0.4235   6.1459   6.3627
     6.3627   8.8756  12.6786  12.7543  12.7543  17.9021  17.9021  18.6746
    20.8706  21.2980  21.2980  24.5993  31.7501  31.9352

          k =-0.0600-0.0600 0.0600     band energies (ev):

    -7.0366  -0.1365  -0.1295  -0.1295   0.4233   0.4233   6.0503   6.3508
     6.3508   8.9497  12.6689  12.7748  12.7748  17.8497  17.8497  18.7446
    20.8029  21.3982  21.3982  24.7253  31.5795  31.8195

          k =-0.0700-0.0700 0.0700     band energies (ev):

    -7.0259  -0.1369  -0.1275  -0.1275   0.4231   0.4231   5.9443   6.3369
     6.3369   9.0298  12.6595  12.7985  12.7985  17.7925  17.7925  18.8238
    20.7318  21.5120  21.5120  24.8675  31.3922  31.6836

          k =-0.0800-0.0800 0.0800     band energies (ev):

    -7.0137  -0.1373  -0.1253  -0.1253   0.4229   0.4229   5.8298   6.3212
     6.3212   9.1135  12.6510  12.8252  12.8252  17.7323  17.7323  18.9099
    20.6608  21.6380  21.6380  25.0236  31.1918  31.5286

          k =-0.0900-0.0900 0.0900     band energies (ev):

    -6.9999  -0.1377  -0.1227  -0.1227   0.4227   0.4227   5.7083   6.3037
     6.3037   9.1991  12.6445  12.8546  12.8546  17.6704  17.6704  18.9998
    20.5941  21.7748  21.7748  25.1921  30.9810  31.3559

          k =-0.1000-0.1000 0.1000     band energies (ev):

    -6.9846  -0.1379  -0.1200  -0.1200   0.4225   0.4225   5.5811   6.2845
     6.2845   9.2848  12.6409  12.8863  12.8863  17.6083  17.6083  19.0891
    20.5368  21.9214  21.9214  25.3711  30.7621  31.1673

          k =-0.1100-0.1100 0.1100     band energies (ev):

    -6.9678  -0.1381  -0.1170  -0.1170   0.4222   0.4222   5.4493   6.2638
     6.2638   9.3692  12.6412  12.9200  12.9200  17.5472  17.5472  19.1719
    20.4953  22.0765  22.0765  25.5592  30.5372  30.9648

          k =-0.1200-0.1200 0.1200     band energies (ev):

    -6.9495  -0.1382  -0.1137  -0.1137   0.4220   0.4220   5.3139   6.2417
     6.2417   9.4508  12.6463  12.9553  12.9553  17.4881  17.4881  19.2408
    20.4776  22.2394  22.2394  25.7551  30.3080  30.7502

          k =-0.1300-0.1300 0.1300     band energies (ev):

    -6.9299  -0.1380  -0.1103  -0.1103   0.4219   0.4219   5.1755   6.2183
     6.2183   9.5286  12.6574  12.9919  12.9919  17.4321  17.4321  19.2879
    20.4916  22.4093  22.4093  25.9574  30.0762  30.5254

          k =-0.1400-0.1400 0.1400     band energies (ev):

    -6.9089  -0.1376  -0.1067  -0.1067   0.4217   0.4217   5.0349   6.1937
     6.1937   9.6015  12.6751  13.0291  13.0291  17.3802  17.3802  19.3080
    20.5427  22.5854  22.5854  26.1645  29.8435  30.2922

          k =-0.1500-0.1500 0.1500     band energies (ev):

    -6.8866  -0.1370  -0.1029  -0.1029   0.4216   0.4216   4.8924   6.1680
     6.1680   9.6687  12.7003  13.0666  13.0666  17.3331  17.3331  19.3007
    20.6312  22.7671  22.7671  26.3746  29.6121  30.0521

          k =-0.1600-0.1600 0.1600     band energies (ev):

    -6.8630  -0.1359  -0.0990  -0.0990   0.4216   0.4216   4.7487   6.1415
     6.1415   9.7296  12.7335  13.1040  13.1040  17.2916  17.2916  19.2705
    20.7525  22.9540  22.9540  26.5852  29.3847  29.8066

          k =-0.1700-0.1700 0.1700     band energies (ev):

    -6.8383  -0.1345  -0.0950  -0.0950   0.4216   0.4216   4.6040   6.1142
     6.1142   9.7836  12.7754  13.1406  13.1406  17.2566  17.2566  19.2235
    20.9005  23.1454  23.1454  26.7921  29.1658  29.5570

          k =-0.1800-0.1800 0.1800     band energies (ev):

    -6.8125  -0.1327  -0.0909  -0.0909   0.4217   0.4217   4.4588   6.0863
     6.0863   9.8305  12.8260  13.1760  13.1760  17.2285  17.2285  19.1654
    21.0691  23.3410  23.3410  26.9883  28.9624  29.3043

          k =-0.1900-0.1900 0.1900     band energies (ev):

    -6.7856  -0.1303  -0.0867  -0.0867   0.4219   0.4219   4.3133   6.0578
     6.0578   9.8702  12.8854  13.2098  13.2098  17.2081  17.2081  19.1006
    21.2538  23.5402  23.5402  27.1608  28.7879  29.0496

          k =-0.2000-0.2000 0.2000     band energies (ev):

    -6.7578  -0.1273  -0.0824  -0.0824   0.4221   0.4221   4.1679   6.0290
     6.0290   9.9028  12.9534  13.2415  13.2415  17.1958  17.1958  19.0322
    21.4511  23.7424  23.7424  27.2863  28.6660  28.7941

          k =-0.2100-0.2100 0.2100     band energies (ev):

    -6.7291  -0.1236  -0.0782  -0.0782   0.4225   0.4225   4.0228   5.9999
     5.9999   9.9287  13.0297  13.2706  13.2706  17.1922  17.1922  18.9625
    21.6585  23.9471  23.9471  27.3328  28.5386  28.5386

          k =-0.2200-0.2200 0.2200     band energies (ev):

    -6.6996  -0.1192  -0.0739  -0.0739   0.4230   0.4230   3.8782   5.9707
     5.9707   9.9483  13.1137  13.2970  13.2970  17.1976  17.1976  18.8930
    21.8739  24.1536  24.1536  27.2837  28.2843  28.2843

          k =-0.2300-0.2300 0.2300     band energies (ev):

    -6.6695  -0.1140  -0.0697  -0.0697   0.4236   0.4236   3.7345   5.9414
     5.9414   9.9622  13.2048  13.3202  13.3202  17.2123  17.2123  18.8249
    22.0956  24.3607  24.3607  27.1581  28.0324  28.0324

          k =-0.2400-0.2400 0.2400     band energies (ev):

    -6.6387  -0.1078  -0.0655  -0.0655   0.4243   0.4243   3.5917   5.9122
     5.9122   9.9709  13.3022  13.3401  13.3401  17.2364  17.2364  18.7591
    22.3220  24.5672  24.5672  26.9876  27.7845  27.7845

          k =-0.2500-0.2500 0.2500     band energies (ev):

    -6.6074  -0.1007  -0.0613  -0.0613   0.4251   0.4251   3.4501   5.8832
     5.8832   9.9750  13.3565  13.3565  13.4052  17.2701  17.2701  18.6963
    22.5514  24.7709  24.7709  26.7947  27.5431  27.5431

          k =-0.2600-0.2600 0.2600     band energies (ev):

    -6.5758  -0.0925  -0.0572  -0.0572   0.4261   0.4261   3.3098   5.8546
     5.8546   9.9752  13.3695  13.3695  13.5127  17.3134  17.3134  18.6372
    22.7818  24.9681  24.9681  26.5926  27.3119  27.3119

          k =-0.2700-0.2700 0.2700     band energies (ev):

    -6.5439  -0.0831  -0.0533  -0.0533   0.4271   0.4271   3.1712   5.8263
     5.8263   9.9721  13.3790  13.3790  13.6241  17.3661  17.3661  18.5822
    23.0105  25.1524  25.1524  26.3899  27.0975  27.0975

          k =-0.2800-0.2800 0.2800     band energies (ev):

    -6.5118  -0.0724  -0.0494  -0.0494   0.4283   0.4283   3.0343   5.7985
     5.7985   9.9662  13.3852  13.3852  13.7383  17.4280  17.4280  18.5318
    23.2339  25.3119  25.3119  26.1935  26.9119  26.9119

          k =-0.2900-0.2900 0.2900     band energies (ev):

    -6.4798  -0.0604  -0.0457  -0.0457   0.4296   0.4296   2.8992   5.7713
     5.7713   9.9580  13.3884  13.3884  13.8545  17.4988  17.4988  18.4864
    23.4463  25.4253  25.4253  26.0107  26.7765  26.7765

          k =-0.3000-0.3000 0.3000     band energies (ev):

    -6.4478  -0.0469  -0.0422  -0.0422   0.4310   0.4310   2.7663   5.7448
     5.7448   9.9481  13.3887  13.3887  13.9719  17.5782  17.5782  18.4465
    23.6389  25.4628  25.4628  25.8516  26.7211  26.7211

          k =-0.3100-0.3100 0.3100     band energies (ev):

    -6.4161  -0.0388  -0.0388  -0.0319   0.4325   0.4325   2.6355   5.7190
     5.7190   9.9369  13.3864  13.3864  14.0895  17.6657  17.6657  18.4124
    23.7979  25.4086  25.4086  25.7305  26.7616  26.7616

          k =-0.3200-0.3200 0.3200     band energies (ev):

    -6.3848  -0.0355  -0.0355  -0.0151   0.4341   0.4341   2.5071   5.6941
     5.6941   9.9246  13.3818  13.3818  14.2065  17.7608  17.7608  18.3845
    23.9050  25.2795  25.2795  25.6664  26.8811  26.8811

          k =-0.3300-0.3300 0.3300     band energies (ev):

    -6.3541  -0.0325  -0.0325   0.0034   0.4357   0.4357   2.3812   5.6701
     5.6701   9.9117  13.3754  13.3754  14.3219  17.8630  17.8630  18.3632
    23.9434  25.1054  25.1054  25.6763  27.0499  27.0499

          k =-0.3400-0.3400 0.3400     band energies (ev):

    -6.3240  -0.0296  -0.0296   0.0239   0.4374   0.4374   2.2579   5.6470
     5.6470   9.8984  13.3674  13.3674  14.4350  17.9718  17.9718  18.3487
    23.9101  24.9077  24.9077  25.7635  27.2466  27.2466

          k =-0.3500-0.3500 0.3500     band energies (ev):

    -6.2947  -0.0269  -0.0269   0.0463   0.4392   0.4392   2.1375   5.6250
     5.6250   9.8850  13.3581  13.3581  14.5448  18.0864  18.0864  18.3414
    23.8186  24.6982  24.6982  25.9149  27.4590  27.4590

          k =-0.3600-0.3600 0.3600     band energies (ev):

    -6.2664  -0.0244  -0.0244   0.0709   0.4409   0.4409   2.0199   5.6042
     5.6042   9.8717  13.3479  13.3479  14.6505  18.2062  18.2062  18.3413
    23.6883  24.4837  24.4837  26.1111  27.6806  27.6806

          k =-0.3700-0.3700 0.3700     band energies (ev):

    -6.2393  -0.0221  -0.0221   0.0977   0.4427   0.4427   1.9053   5.5845
     5.5845   9.8587  13.3372  13.3372  14.7512  18.3306  18.3306  18.3486
    23.5351  24.2679  24.2679  26.3363  27.9075  27.9075

          k =-0.3800-0.3800 0.3800     band energies (ev):

    -6.2134  -0.0200  -0.0200   0.1269   0.4444   0.4444   1.7938   5.5660
     5.5660   9.8461  13.3261  13.3261  14.8463  18.3633  18.4586  18.4586
    23.3702  24.0534  24.0534  26.5797  28.1369  28.1369

          k =-0.3900-0.3900 0.3900     band energies (ev):

    -6.1890  -0.0180  -0.0180   0.1585   0.4461   0.4461   1.6856   5.5489
     5.5489   9.8341  13.3149  13.3149  14.9351  18.3850  18.5893  18.5893
    23.2005  23.8421  23.8421  26.8344  28.3668  28.3668

          k =-0.4000-0.4000 0.4000     band energies (ev):

    -6.1661  -0.0163  -0.0163   0.1926   0.4477   0.4477   1.5808   5.5330
     5.5330   9.8228  13.3040  13.3040  15.0169  18.4133  18.7218  18.7218
    23.0311  23.6355  23.6355  27.0955  28.5955  28.5955

          k =-0.4100-0.4100 0.4100     band energies (ev):

    -6.1449  -0.0147  -0.0147   0.2294   0.4493   0.4493   1.4794   5.5186
     5.5186   9.8123  13.2934  13.2934  15.0914  18.4473  18.8547  18.8547
    22.8655  23.4352  23.4352  27.3592  28.8210  28.8210

          k =-0.4200-0.4200 0.4200     band energies (ev):

    -6.1256  -0.0133  -0.0133   0.2689   0.4507   0.4507   1.3816   5.5055
     5.5055   9.8027  13.2835  13.2835  15.1581  18.4861  18.9866  18.9866
    22.7067  23.2430  23.2430  27.6224  29.0412  29.0412

          k =-0.4300-0.4300 0.4300     band energies (ev):

    -6.1082  -0.0121  -0.0121   0.3111   0.4521   0.4521   1.2875   5.4939
     5.4939   9.7941  13.2743  13.2743  15.2169  18.5281  19.1155  19.1155
    22.5574  23.0608  23.0608  27.8816  29.2538  29.2538

          k =-0.4400-0.4400 0.4400     band energies (ev):

    -6.0929  -0.0111  -0.0111   0.3560   0.4533   0.4533   1.1972   5.4838
     5.4838   9.7865  13.2661  13.2661  15.2676  18.5716  19.2392  19.2392
    22.4202  22.8909  22.8909  28.1331  29.4554  29.4554

          k =-0.4500-0.4500 0.4500     band energies (ev):

    -6.0798  -0.0102  -0.0102   0.4035   0.4543   0.4543   1.1111   5.4752
     5.4752   9.7800  13.2589  13.2589  15.3103  18.6144  19.3547  19.3547
    22.2977  22.7363  22.7363  28.3719  29.6423  29.6423

          k =-0.4600-0.4600 0.4600     band energies (ev):

    -6.0689  -0.0095  -0.0095   0.4534   0.4552   0.4552   1.0295   5.4681
     5.4681   9.7747  13.2529  13.2529  15.3450  18.6543  19.4585  19.4585
    22.1925  22.6006  22.6006  28.5914  29.8094  29.8094

          k =-0.4700-0.4700 0.4700     band energies (ev):

    -6.0604  -0.0089  -0.0089   0.4559   0.4559   0.5050   0.9531   5.4626
     5.4626   9.7704  13.2482  13.2482  15.3718  18.6887  19.5464  19.5464
    22.1073  22.4878  22.4878  28.7827  29.9507  29.9507

          k =-0.4800-0.4800 0.4800     band energies (ev):

    -6.0542  -0.0085  -0.0085   0.4564   0.4564   0.5562   0.8841   5.4586
     5.4586   9.7674  13.2447  13.2447  15.3908  18.7153  19.6139  19.6139
    22.0444  22.4026  22.4026  28.9343  30.0591  30.0591

          k =-0.4900-0.4900 0.4900     band energies (ev):

    -6.0505  -0.0083  -0.0083   0.4567   0.4567   0.6013   0.8284   5.4562
     5.4562   9.7656  13.2426  13.2426  15.4022  18.7322  19.6566  19.6566
    22.0057  22.3494  22.3494  29.0330  30.1278  30.1278

          k =-0.5000-0.5000 0.5000     band energies (ev):

    -6.0493  -0.0082  -0.0082   0.4568   0.4568   0.6223   0.8038   5.4555
     5.4555   9.7650  13.2419  13.2419  15.4060  18.7380  19.6712  19.6712
    21.9927  22.3312  22.3312  29.0675  30.1513  30.1513

          k =-0.5100-0.5100 0.5100     band energies (ev):

    -6.0505  -0.0083  -0.0083   0.4567   0.4567   0.6013   0.8284   5.4562
     5.4562   9.7656  13.2426  13.2426  15.4022  18.7322  19.6566  19.6566
    22.0057  22.3494  22.3494  29.0330  30.1278  30.1278

          k =-0.5200-0.5200 0.5200     band energies (ev):

    -6.0542  -0.0085  -0.0085   0.4563   0.4563   0.5562   0.8841   5.4586
     5.4586   9.7674  13.2447  13.2447  15.3908  18.7153  19.6139  19.6139
    22.0444  22.4026  22.4026  28.9343  30.0591  30.0591

          k =-0.5300-0.5300 0.5300     band energies (ev):

    -6.0604  -0.0089  -0.0089   0.4559   0.4559   0.5050   0.9531   5.4626
     5.4626   9.7704  13.2482  13.2482  15.3718  18.6887  19.5464  19.5464
    22.1073  22.4878  22.4878  28.7827  29.9507  29.9507

          k =-0.5400-0.5400 0.5400     band energies (ev):

    -6.0689  -0.0095  -0.0095   0.4534   0.4552   0.4552   1.0295   5.4681
     5.4681   9.7747  13.2529  13.2529  15.3450  18.6543  19.4585  19.4585
    22.1925  22.6006  22.6006  28.5914  29.8094  29.8094

          k =-0.5500-0.5500 0.5500     band energies (ev):

    -6.0798  -0.0102  -0.0102   0.4035   0.4543   0.4543   1.1111   5.4752
     5.4752   9.7800  13.2589  13.2589  15.3103  18.6144  19.3547  19.3547
    22.2977  22.7363  22.7363  28.3719  29.6423  29.6423

          k =-0.5600-0.5600 0.5600     band energies (ev):

    -6.0929  -0.0111  -0.0111   0.3560   0.4533   0.4533   1.1972   5.4838
     5.4838   9.7865  13.2661  13.2661  15.2676  18.5716  19.2392  19.2392
    22.4202  22.8909  22.8909  28.1331  29.4554  29.4554

          k =-0.5700-0.5700 0.5700     band energies (ev):

    -6.1082  -0.0121  -0.0121   0.3111   0.4521   0.4521   1.2875   5.4939
     5.4939   9.7941  13.2743  13.2743  15.2169  18.5281  19.1155  19.1155
    22.5574  23.0608  23.0608  27.8816  29.2538  29.2538

          k =-0.5800-0.5800 0.5800     band energies (ev):

    -6.1256  -0.0133  -0.0133   0.2689   0.4507   0.4507   1.3816   5.5055
     5.5055   9.8027  13.2835  13.2835  15.1581  18.4861  18.9866  18.9866
    22.7067  23.2430  23.2430  27.6224  29.0412  29.0412

          k =-0.5900-0.5900 0.5900     band energies (ev):

    -6.1449  -0.0147  -0.0147   0.2294   0.4493   0.4493   1.4794   5.5186
     5.5186   9.8123  13.2934  13.2934  15.0914  18.4473  18.8547  18.8547
    22.8655  23.4352  23.4352  27.3592  28.8210  28.8210

          k =-0.6000-0.6000 0.6000     band energies (ev):

    -6.1661  -0.0163  -0.0163   0.1926   0.4477   0.4477   1.5808   5.5330
     5.5330   9.8228  13.3040  13.3040  15.0169  18.4133  18.7218  18.7218
    23.0311  23.6355  23.6355  27.0955  28.5955  28.5955

          k =-0.6100-0.6100 0.6100     band energies (ev):

    -6.1890  -0.0180  -0.0180   0.1585   0.4461   0.4461   1.6856   5.5489
     5.5489   9.8341  13.3149  13.3149  14.9351  18.3850  18.5893  18.5893
    23.2005  23.8421  23.8421  26.8344  28.3668  28.3668

          k =-0.6200-0.6200 0.6200     band energies (ev):

    -6.2134  -0.0200  -0.0200   0.1269   0.4444   0.4444   1.7938   5.5660
     5.5660   9.8461  13.3261  13.3261  14.8463  18.3633  18.4586  18.4586
    23.3702  24.0534  24.0534  26.5797  28.1369  28.1369

          k =-0.6300-0.6300 0.6300     band energies (ev):

    -6.2393  -0.0221  -0.0221   0.0977   0.4427   0.4427   1.9053   5.5845
     5.5845   9.8587  13.3372  13.3372  14.7512  18.3306  18.3306  18.3486
    23.5351  24.2679  24.2679  26.3363  27.9075  27.9075

          k =-0.6400-0.6400 0.6400     band energies (ev):

    -6.2664  -0.0244  -0.0244   0.0709   0.4409   0.4409   2.0199   5.6042
     5.6042   9.8717  13.3479  13.3479  14.6505  18.2062  18.2062  18.3413
    23.6883  24.4837  24.4837  26.1111  27.6806  27.6806

          k =-0.6500-0.6500 0.6500     band energies (ev):

    -6.2947  -0.0269  -0.0269   0.0463   0.4392   0.4392   2.1375   5.6250
     5.6250   9.8850  13.3581  13.3581  14.5448  18.0864  18.0864  18.3414
    23.8186  24.6982  24.6982  25.9149  27.4590  27.4590

          k =-0.6600-0.6600 0.6600     band energies (ev):

    -6.3240  -0.0296  -0.0296   0.0239   0.4374   0.4374   2.2579   5.6470
     5.6470   9.8984  13.3674  13.3674  14.4350  17.9718  17.9718  18.3487
    23.9101  24.9077  24.9077  25.7635  27.2466  27.2466

          k =-0.6700-0.6700 0.6700     band energies (ev):

    -6.3541  -0.0325  -0.0325   0.0034   0.4357   0.4357   2.3812   5.6701
     5.6701   9.9117  13.3754  13.3754  14.3219  17.8630  17.8630  18.3632
    23.9434  25.1054  25.1054  25.6763  27.0499  27.0499

          k =-0.6800-0.6800 0.6800     band energies (ev):

    -6.3848  -0.0355  -0.0355  -0.0151   0.4341   0.4341   2.5071   5.6941
     5.6941   9.9246  13.3818  13.3818  14.2065  17.7608  17.7608  18.3845
    23.9050  25.2795  25.2795  25.6664  26.8811  26.8811

          k =-0.6900-0.6900 0.6900     band energies (ev):

    -6.4161  -0.0388  -0.0388  -0.0319   0.4325   0.4325   2.6355   5.7190
     5.7190   9.9369  13.3864  13.3864  14.0895  17.6657  17.6657  18.4124
    23.7979  25.4086  25.4086  25.7305  26.7616  26.7616

          k =-0.7000-0.7000 0.7000     band energies (ev):

    -6.4478  -0.0469  -0.0422  -0.0422   0.4310   0.4310   2.7663   5.7448
     5.7448   9.9481  13.3887  13.3887  13.9719  17.5782  17.5782  18.4465
    23.6389  25.4628  25.4628  25.8516  26.7211  26.7211

          k =-0.7100-0.7100 0.7100     band energies (ev):

    -6.4798  -0.0604  -0.0457  -0.0457   0.4296   0.4296   2.8992   5.7713
     5.7713   9.9580  13.3884  13.3884  13.8545  17.4988  17.4988  18.4864
    23.4463  25.4253  25.4253  26.0107  26.7765  26.7765

          k =-0.7200-0.7200 0.7200     band energies (ev):

    -6.5118  -0.0724  -0.0494  -0.0494   0.4283   0.4283   3.0343   5.7985
     5.7985   9.9662  13.3852  13.3852  13.7383  17.4280  17.4280  18.5318
    23.2339  25.3119  25.3119  26.1935  26.9119  26.9119

          k =-0.7300-0.7300 0.7300     band energies (ev):

    -6.5439  -0.0831  -0.0533  -0.0533   0.4271   0.4271   3.1712   5.8263
     5.8263   9.9721  13.3790  13.3790  13.6241  17.3661  17.3661  18.5822
    23.0105  25.1524  25.1524  26.3899  27.0975  27.0975

          k =-0.7400-0.7400 0.7400     band energies (ev):

    -6.5758  -0.0925  -0.0572  -0.0572   0.4261   0.4261   3.3098   5.8546
     5.8546   9.9752  13.3695  13.3695  13.5127  17.3134  17.3134  18.6372
    22.7818  24.9681  24.9681  26.5926  27.3119  27.3119

          k =-0.7500-0.7500 0.7500     band energies (ev):

    -6.6074  -0.1007  -0.0613  -0.0613   0.4251   0.4251   3.4501   5.8832
     5.8832   9.9750  13.3565  13.3565  13.4052  17.2701  17.2701  18.6963
    22.5514  24.7709  24.7709  26.7947  27.5431  27.5431

          k =-0.7600-0.7600 0.7600     band energies (ev):

    -6.6387  -0.1078  -0.0655  -0.0655   0.4243   0.4243   3.5917   5.9122
     5.9122   9.9709  13.3022  13.3401  13.3401  17.2364  17.2364  18.7591
    22.3220  24.5672  24.5672  26.9876  27.7845  27.7845

          k =-0.7700-0.7700 0.7700     band energies (ev):

    -6.6695  -0.1140  -0.0697  -0.0697   0.4236   0.4236   3.7345   5.9414
     5.9414   9.9622  13.2048  13.3202  13.3202  17.2123  17.2123  18.8249
    22.0956  24.3607  24.3607  27.1581  28.0324  28.0324

          k =-0.7800-0.7800 0.7800     band energies (ev):

    -6.6996  -0.1192  -0.0739  -0.0739   0.4230   0.4230   3.8782   5.9707
     5.9707   9.9483  13.1137  13.2970  13.2970  17.1976  17.1976  18.8930
    21.8739  24.1536  24.1536  27.2837  28.2843  28.2843

          k =-0.7900-0.7900 0.7900     band energies (ev):

    -6.7291  -0.1236  -0.0782  -0.0782   0.4225   0.4225   4.0228   5.9999
     5.9999   9.9287  13.0297  13.2706  13.2706  17.1922  17.1922  18.9625
    21.6585  23.9471  23.9471  27.3328  28.5386  28.5386

          k =-0.8000-0.8000 0.8000     band energies (ev):

    -6.7578  -0.1273  -0.0824  -0.0824   0.4221   0.4221   4.1679   6.0290
     6.0290   9.9028  12.9534  13.2415  13.2415  17.1958  17.1958  19.0322
    21.4511  23.7424  23.7424  27.2863  28.6660  28.7941

          k =-0.8100-0.8100 0.8100     band energies (ev):

    -6.7856  -0.1303  -0.0867  -0.0867   0.4219   0.4219   4.3133   6.0578
     6.0578   9.8702  12.8854  13.2098  13.2098  17.2081  17.2081  19.1006
    21.2538  23.5402  23.5402  27.1608  28.7879  29.0496

          k =-0.8200-0.8200 0.8200     band energies (ev):

    -6.8125  -0.1327  -0.0909  -0.0909   0.4217   0.4217   4.4588   6.0863
     6.0863   9.8305  12.8260  13.1760  13.1760  17.2285  17.2285  19.1654
    21.0691  23.3410  23.3410  26.9883  28.9624  29.3043

          k =-0.8300-0.8300 0.8300     band energies (ev):

    -6.8383  -0.1345  -0.0950  -0.0950   0.4216   0.4216   4.6040   6.1142
     6.1142   9.7836  12.7754  13.1406  13.1406  17.2566  17.2566  19.2235
    20.9005  23.1454  23.1454  26.7921  29.1658  29.5570

          k =-0.8400-0.8400 0.8400     band energies (ev):

    -6.8630  -0.1359  -0.0990  -0.0990   0.4216   0.4216   4.7487   6.1415
     6.1415   9.7296  12.7335  13.1040  13.1040  17.2916  17.2916  19.2705
    20.7525  22.9540  22.9540  26.5852  29.3847  29.8066

          k =-0.8500-0.8500 0.8500     band energies (ev):

    -6.8866  -0.1370  -0.1029  -0.1029   0.4216   0.4216   4.8924   6.1680
     6.1680   9.6687  12.7003  13.0666  13.0666  17.3331  17.3331  19.3007
    20.6312  22.7671  22.7671  26.3746  29.6121  30.0521

          k =-0.8600-0.8600 0.8600     band energies (ev):

    -6.9089  -0.1376  -0.1067  -0.1067   0.4217   0.4217   5.0349   6.1937
     6.1937   9.6015  12.6751  13.0291  13.0291  17.3802  17.3802  19.3080
    20.5427  22.5854  22.5854  26.1645  29.8435  30.2922

          k =-0.8700-0.8700 0.8700     band energies (ev):

    -6.9299  -0.1380  -0.1103  -0.1103   0.4219   0.4219   5.1755   6.2183
     6.2183   9.5286  12.6574  12.9919  12.9919  17.4321  17.4321  19.2879
    20.4916  22.4093  22.4093  25.9574  30.0762  30.5254

          k =-0.8800-0.8800 0.8800     band energies (ev):

    -6.9495  -0.1382  -0.1137  -0.1137   0.4220   0.4220   5.3139   6.2417
     6.2417   9.4508  12.6463  12.9553  12.9553  17.4881  17.4881  19.2408
    20.4776  22.2394  22.2394  25.7551  30.3080  30.7502

          k =-0.8900-0.8900 0.8900     band energies (ev):

    -6.9678  -0.1381  -0.1170  -0.1170   0.4222   0.4222   5.4493   6.2638
     6.2638   9.3692  12.6412  12.9200  12.9200  17.5472  17.5472  19.1719
    20.4953  22.0765  22.0765  25.5592  30.5372  30.9648

          k =-0.9000-0.9000 0.9000     band energies (ev):

    -6.9846  -0.1379  -0.1200  -0.1200   0.4225   0.4225   5.5811   6.2845
     6.2845   9.2848  12.6409  12.8863  12.8863  17.6083  17.6083  19.0891
    20.5368  21.9214  21.9214  25.3711  30.7621  31.1673

          k =-0.9100-0.9100 0.9100     band energies (ev):

    -6.9999  -0.1377  -0.1227  -0.1227   0.4227   0.4227   5.7083   6.3037
     6.3037   9.1991  12.6445  12.8546  12.8546  17.6704  17.6704  18.9998
    20.5941  21.7748  21.7748  25.1921  30.9810  31.3559

          k =-0.9200-0.9200 0.9200     band energies (ev):

    -7.0137  -0.1373  -0.1253  -0.1253   0.4229   0.4229   5.8298   6.3212
     6.3212   9.1135  12.6510  12.8252  12.8252  17.7323  17.7323  18.9099
    20.6608  21.6380  21.6380  25.0236  31.1918  31.5286

          k =-0.9300-0.9300 0.9300     band energies (ev):

    -7.0259  -0.1369  -0.1275  -0.1275   0.4231   0.4231   5.9443   6.3369
     6.3369   9.0298  12.6595  12.7985  12.7985  17.7925  17.7925  18.8238
    20.7318  21.5120  21.5120  24.8675  31.3922  31.6836

          k =-0.9400-0.9400 0.9400     band energies (ev):

    -7.0366  -0.1365  -0.1295  -0.1295   0.4233   0.4233   6.0503   6.3508
     6.3508   8.9497  12.6689  12.7748  12.7748  17.8497  17.8497  18.7446
    20.8029  21.3982  21.3982  24.7253  31.5795  31.8195

          k =-0.9500-0.9500 0.9500     band energies (ev):

    -7.0457  -0.1361  -0.1312  -0.1312   0.4235   0.4235   6.1459   6.3627
     6.3627   8.8756  12.6786  12.7543  12.7543  17.9021  17.9021  18.6746
    20.8706  21.2980  21.2980  24.5993  31.7501  31.9352

          k =-0.9600-0.9600 0.9600     band energies (ev):

    -7.0531  -0.1358  -0.1326  -0.1326   0.4237   0.4237   6.2290   6.3725
     6.3725   8.8098  12.6876  12.7372  12.7372  17.9481  17.9481  18.6153
    20.9315  21.2130  21.2130  24.4916  31.9001  32.0299

          k =-0.9700-0.9700 0.9700     band energies (ev):

    -7.0589  -0.1355  -0.1337  -0.1337   0.4238   0.4238   6.2972   6.3803
     6.3803   8.7548  12.6953  12.7238  12.7238  17.9862  17.9862  18.5680
    20.9828  21.1448  21.1448  24.4046  32.0246  32.1035

          k =-0.9800-0.9800 0.9800     band energies (ev):

    -7.0631  -0.1353  -0.1345  -0.1345   0.4239   0.4239   6.3481   6.3858
     6.3858   8.7133  12.7013  12.7141  12.7141  18.0146  18.0146  18.5336
    21.0216  21.0949  21.0949  24.3405  32.1187  32.1558

          k =-0.9900-0.9900 0.9900     band energies (ev):

    -7.0656  -0.1352  -0.1350  -0.1350   0.4240   0.4240   6.3796   6.3892
     6.3892   8.6873  12.7050  12.7082  12.7082  18.0322  18.0322  18.5128
    21.0459  21.0644  21.0644  24.3012  32.1775  32.1871

          k =-1.0000-1.0000 1.0000     band energies (ev):

    -7.0664  -0.1351  -0.1351  -0.1351   0.4240   0.4240   6.3903   6.3903
     6.3903   8.6784  12.7063  12.7063  12.7063  18.0382  18.0382  18.5058
    21.0541  21.0541  21.0541  24.2879  32.1975  32.1975

     highest occupied, lowest unoccupied level (ev):     6.3903    8.6784

     Writing output data file ZnS.save
 
     init_run     :      1.15s CPU      1.18s WALL (       1 calls)
     electrons    :    141.49s CPU    143.67s WALL (       1 calls)

     Called by init_run:
     wfcinit      :      0.01s CPU      0.00s WALL (       1 calls)
     potinit      :      0.04s CPU      0.04s WALL (       1 calls)

     Called by electrons:
     c_bands      :    141.49s CPU    143.67s WALL (       1 calls)
     v_of_rho     :      0.03s CPU      0.04s WALL (       1 calls)
     newd         :      0.08s CPU      0.09s WALL (       1 calls)

     Called by c_bands:
     init_us_2    :      0.09s CPU      0.11s WALL (     101 calls)
     cegterg      :    134.10s CPU    135.57s WALL (     179 calls)

     Called by *egterg:
     h_psi        :    107.12s CPU    107.76s WALL (    2961 calls)
     s_psi        :      3.22s CPU      3.05s WALL (    2961 calls)
     g_psi        :      1.06s CPU      1.07s WALL (    2681 calls)
     cdiaghg      :      5.55s CPU      6.01s WALL (    2782 calls)

     Called by h_psi:
     add_vuspsi   :      3.15s CPU      3.03s WALL (    2961 calls)

     General routines
     calbec       :      3.20s CPU      3.29s WALL (    2961 calls)
     fft          :      0.01s CPU      0.02s WALL (      11 calls)
     fftw         :     94.52s CPU     95.16s WALL (   81274 calls)
     davcio       :      0.07s CPU      0.35s WALL (     202 calls)
 
     Parallel routines
     fft_scatter  :      3.40s CPU      3.51s WALL (   81285 calls)
     EXX routines
 
     PWSCF        :  2m23.57s CPU     2m26.07s WALL

 
   This run was terminated on:  11:28:23   8Aug2012            

=------------------------------------------------------------------------------=
   JOB DONE.
=------------------------------------------------------------------------------=
