
     Program PWSCF v.5.0        starts on 30Oct2013 at 13: 8:13 

     This program is part of the open-source Quantum ESPRESSO suite
     for quantum simulation of materials; please cite
         "P. Giannozzi et al., J. Phys.:Condens. Matter 21 395502 (2009);
          URL http://www.quantum-espresso.org", 
     in publications or presentations arising from this work. More details at
     http://www.quantum-espresso.org/quote.php

     Parallel version (MPI), running on     1 processors

     Current dimensions of program PWSCF are:
     Max number of different atomic species (ntypx) = 10
     Max number of k-points (npk) =  40000
     Max angular momentum in pseudopotentials (lmaxx) =  3
     Waiting for input...
     Reading input from standard input

     Subspace diagonalization in iterative solution of the eigenvalue problem:
     a serial algorithm will be used

 kpoint style unhandled: 
 none                                                                           
  
 
     G-vector sticks info
     --------------------
     sticks:   dense  smooth     PW     G-vecs:    dense   smooth      PW
     Sum         823     421    151                15593     5577    1139
 

     Title: 
     Cu_fcc                                                                     


     bravais-lattice index     =            2
     lattice parameter (alat)  =       6.8219  a.u.
     unit-cell volume          =      79.3699 (a.u.)^3
     number of atoms/cell      =            1
     number of atomic types    =            1
     number of electrons       =        11.00
     number of Kohn-Sham states=           10
     kinetic-energy cutoff     =      64.0000  Ry
     charge density cutoff     =     512.0000  Ry
     convergence threshold     =      1.0E-12
     mixing beta               =       0.7000
     number of iterations used =            8  plain     mixing
     Exchange-correlation      =  SLA  PW   PBE  PBE ( 1 4 3 4 0)
     EXX-fraction              =        0.00

     celldm(1)=   6.821900  celldm(2)=   0.000000  celldm(3)=   0.000000
     celldm(4)=   0.000000  celldm(5)=   0.000000  celldm(6)=   0.000000

     crystal axes: (cart. coord. in units of alat)
               a(1) = (  -0.500000   0.000000   0.500000 )  
               a(2) = (   0.000000   0.500000   0.500000 )  
               a(3) = (  -0.500000   0.500000   0.000000 )  

     reciprocal axes: (cart. coord. in units 2 pi/alat)
               b(1) = ( -1.000000 -1.000000  1.000000 )  
               b(2) = (  1.000000  1.000000  1.000000 )  
               b(3) = ( -1.000000  1.000000 -1.000000 )  


     PseudoPot. # 1 for Cu read from file:
     ../pseudo/Cu.pbe-d-rrkjus.UPF
     MD5 check sum: 855c9c66b119533e70b4be5d3ca221fe
     Pseudo is Ultrasoft, Zval = 11.0
     Generated by new atomic code, or converted to UPF format
     Using radial grid of  899 points,  3 beta functions with: 
                l(1) =   2
                l(2) =   2
                l(3) =   1
     Q(r) pseudized with 0 coefficients 


     atomic species   valence    mass     pseudopotential
        Cu            11.00    63.54600     Cu( 1.00)

     48 Sym. Ops., with inversion, found



   Cartesian axes

     site n.     atom                  positions (alat units)
         1           Cu  tau(   1) = (   0.0000000   0.0000000   0.0000000  )

     number of k points=   408  gaussian smearing, width (Ry)=  0.0000

     Number of k-points >= 100: set verbosity='high' to print them.

     Dense  grid:    15593 G-vectors     FFT dimensions: (  36,  36,  36)

     Smooth grid:     5577 G-vectors     FFT dimensions: (  25,  25,  25)

     Largest allocated arrays     est. size (Mb)     dimensions
        Kohn-Sham Wavefunctions         0.11 Mb     (    700,   10)
        NL pseudopotentials             0.14 Mb     (    700,   13)
        Each V/rho on FFT grid          0.71 Mb     (  46656)
        Each G-vector array             0.12 Mb     (  15593)
        G-vector shells                 0.00 Mb     (    204)
     Largest temporary arrays     est. size (Mb)     dimensions
        Auxiliary wavefunctions         0.43 Mb     (    700,   40)
        Each subspace H/S matrix        0.02 Mb     (  40,  40)
        Each <psi_i|beta_j> matrix      0.00 Mb     (     13,   10)
        Arrays for rho mixing           5.70 Mb     (  46656,   8)

     Initial potential from superposition of free atoms

     starting charge   10.99956, renormalised to   11.00000
     Starting wfc are    6 randomized atomic wfcs

     total cpu time spent up to now is        2.0 secs

     per-process dynamical memory:    18.5 Mb

     Self-consistent Calculation

     iteration #  1     ecut=    64.00 Ry     beta=0.70
     Davidson diagonalization with overlap
     ethr =  1.00E-02,  avg # of iterations =  4.8
     Warning: too many iterations in bisection
     Ef =  15.601335 sumk =  11.000000 electrons

     total cpu time spent up to now is       10.0 secs

     total energy              =     -87.53397008 Ry
     Harris-Foulkes estimate   =     -87.69947337 Ry
     estimated scf accuracy    <       0.23089386 Ry

     iteration #  2     ecut=    64.00 Ry     beta=0.70
     Davidson diagonalization with overlap
     ethr =  2.10E-03,  avg # of iterations =  2.0
     Warning: too many iterations in bisection
     Ef =  13.395675 sumk =  11.000000 electrons

     total cpu time spent up to now is       15.6 secs

     total energy              =     -87.60863778 Ry
     Harris-Foulkes estimate   =     -87.70080581 Ry
     estimated scf accuracy    <       0.18872381 Ry

     iteration #  3     ecut=    64.00 Ry     beta=0.70
     Davidson diagonalization with overlap
     ethr =  1.72E-03,  avg # of iterations =  1.0
     Warning: too many iterations in bisection
     Ef =  14.205620 sumk =  11.000000 electrons

     total cpu time spent up to now is       20.2 secs

     total energy              =     -87.63877415 Ry
     Harris-Foulkes estimate   =     -87.63923068 Ry
     estimated scf accuracy    <       0.00084246 Ry

     iteration #  4     ecut=    64.00 Ry     beta=0.70
     Davidson diagonalization with overlap
     ethr =  7.66E-06,  avg # of iterations =  2.2
     Warning: too many iterations in bisection
     Ef =  14.258703 sumk =  11.000000 electrons

     total cpu time spent up to now is       26.2 secs

     total energy              =     -87.63917374 Ry
     Harris-Foulkes estimate   =     -87.63918311 Ry
     estimated scf accuracy    <       0.00005211 Ry

     iteration #  5     ecut=    64.00 Ry     beta=0.70
     Davidson diagonalization with overlap
     ethr =  4.74E-07,  avg # of iterations =  1.0
     Warning: too many iterations in bisection
     Ef =  14.250345 sumk =  11.000000 electrons

     total cpu time spent up to now is       30.8 secs

     total energy              =     -87.63917081 Ry
     Harris-Foulkes estimate   =     -87.63917604 Ry
     estimated scf accuracy    <       0.00001204 Ry

     iteration #  6     ecut=    64.00 Ry     beta=0.70
     Davidson diagonalization with overlap
     ethr =  1.09E-07,  avg # of iterations =  1.0
     Warning: too many iterations in bisection
     Ef =  14.244055 sumk =  11.000000 electrons

     total cpu time spent up to now is       35.5 secs

     total energy              =     -87.63917288 Ry
     Harris-Foulkes estimate   =     -87.63917287 Ry
     estimated scf accuracy    <       0.00000002 Ry

     iteration #  7     ecut=    64.00 Ry     beta=0.70
     Davidson diagonalization with overlap
     ethr =  1.67E-10,  avg # of iterations =  2.0
     Warning: too many iterations in bisection
     Ef =  14.243701 sumk =  11.000000 electrons

     total cpu time spent up to now is       41.4 secs

     total energy              =     -87.63917288 Ry
     Harris-Foulkes estimate   =     -87.63917288 Ry
     estimated scf accuracy    <          1.1E-09 Ry

     iteration #  8     ecut=    64.00 Ry     beta=0.70
     Davidson diagonalization with overlap
     ethr =  9.75E-12,  avg # of iterations =  1.0
     Warning: too many iterations in bisection
     Ef =  14.243740 sumk =  11.000000 electrons

     total cpu time spent up to now is       46.0 secs

     total energy              =     -87.63917288 Ry
     Harris-Foulkes estimate   =     -87.63917288 Ry
     estimated scf accuracy    <          2.1E-10 Ry

     iteration #  9     ecut=    64.00 Ry     beta=0.70
     Davidson diagonalization with overlap
     ethr =  1.87E-12,  avg # of iterations =  1.0
     Warning: too many iterations in bisection
     Ef =  14.243765 sumk =  11.000000 electrons

     total cpu time spent up to now is       50.7 secs

     total energy              =     -87.63917288 Ry
     Harris-Foulkes estimate   =     -87.63917288 Ry
     estimated scf accuracy    <          1.9E-12 Ry

     iteration # 10     ecut=    64.00 Ry     beta=0.70
     Davidson diagonalization with overlap
     ethr =  1.00E-13,  avg # of iterations =  1.0
     Warning: too many iterations in bisection
     Ef =  14.243769 sumk =  11.000000 electrons

     total cpu time spent up to now is       55.0 secs

     End of self-consistent calculation

          k =-0.0312 0.0312 0.0312 (   694 PWs)   bands (ev):

     5.0278  11.0377  11.0523  11.0523  11.8567  11.8567  37.7444  39.3803
    39.9245  39.9245

          k =-0.0938 0.0938-0.0312 (   687 PWs)   bands (ev):

     5.2176  10.9955  11.0853  11.0939  11.8251  11.8623  36.2304  37.8029
    39.2280  40.1809

          k =-0.1562 0.1562-0.0938 (   680 PWs)   bands (ev):

     5.6831  10.9113  11.1574  11.1627  11.7902  11.8678  32.8999  36.9181
    38.9792  39.6272

          k =-0.2188 0.2188-0.1562 (   677 PWs)   bands (ev):

     6.3962  10.8222  11.2085  11.2158  11.8028  11.9183  29.5412  36.2510
    38.5772  38.9832

          k =-0.2812 0.2812-0.2188 (   679 PWs)   bands (ev):

     7.2878  10.8031  11.1916  11.2040  11.9122  12.0455  26.3776  35.7629
    38.0063  38.4361

          k =-0.3438 0.3438-0.2812 (   682 PWs)   bands (ev):

     8.1875  11.0101  11.1297  11.1409  12.0863  12.2249  23.4669  35.4749
    37.3915  37.9656

          k =-0.4062 0.4062-0.3438 (   677 PWs)   bands (ev):

     8.7993  11.0594  11.0729  11.6424  12.2607  12.4462  20.8865  35.3985
    36.8661  37.4731

          k =-0.4688 0.4688-0.4062 (   687 PWs)   bands (ev):

     9.0417  11.0094  11.0278  12.2225  12.3876  13.0072  18.8667  35.5253
    36.5305  36.9170

          k = 0.4688-0.4688 0.5312 (   694 PWs)   bands (ev):

     9.0856  10.9937  11.0179  12.2916  12.4376  13.3973  18.1896  35.7786
    36.4156  36.4964

          k = 0.4062-0.4062 0.4688 (   686 PWs)   bands (ev):

     8.9909  11.0169  11.0451  12.0795  12.4012  12.7325  19.4469  36.0070
    36.0920  36.8901

          k = 0.3438-0.3438 0.4062 (   679 PWs)   bands (ev):

     8.6415  11.0739  11.1017  11.3803  12.2852  12.2893  21.7014  35.9981
    36.2555  37.5802

          k = 0.2812-0.2812 0.3438 (   682 PWs)   bands (ev):

     7.9040  10.8993  11.1481  11.1689  12.0564  12.1334  24.4053  36.1444
    36.5925  38.3685

          k = 0.2188-0.2188 0.2812 (   681 PWs)   bands (ev):

     6.9781  10.7927  11.2060  11.2149  11.8789  11.9829  27.4063  36.5260
    37.0104  39.1262

          k = 0.1562-0.1562 0.2188 (   683 PWs)   bands (ev):

     6.1340  10.8470  11.2007  11.2034  11.7911  11.8910  30.6430  37.1344
    37.4781  39.7332

          k = 0.0938-0.0938 0.1562 (   688 PWs)   bands (ev):

     5.4985  10.9399  11.1350  11.1392  11.7957  11.8668  34.0440  37.9529
    37.9554  40.0473

          k = 0.0312-0.0312 0.0938 (   687 PWs)   bands (ev):

     5.1229  11.0117  11.0732  11.0747  11.8316  11.8675  37.1465  38.6349
    38.9478  39.9343

          k =-0.0312 0.1562 0.0312 (   686 PWs)   bands (ev):

     5.3119  10.9576  11.1178  11.1190  11.7833  11.8886  36.2771  37.7387
    37.7768  39.3876

          k =-0.0938 0.2188-0.0312 (   682 PWs)   bands (ev):

     5.6840  10.8743  11.1870  11.1893  11.7238  11.9150  34.1493  35.6409
    38.0113  39.6493

          k =-0.1562 0.2812-0.0938 (   682 PWs)   bands (ev):

     6.3129  10.7752  11.2359  11.2638  11.7109  11.9689  30.7880  34.8110
    37.5095  40.8021

          k =-0.2188 0.3438-0.1562 (   681 PWs)   bands (ev):

     7.1466  10.7085  11.2017  11.2806  11.8297  12.0891  27.5554  34.2361
    36.9753  39.3898

          k =-0.2812 0.4062-0.2188 (   681 PWs)   bands (ev):

     8.0574  10.7736  11.1111  11.2366  12.0566  12.2813  24.5519  33.8991
    36.4459  37.8703

          k =-0.3438 0.4688-0.2812 (   685 PWs)   bands (ev):

     8.7754  11.0079  11.1250  11.1773  12.2804  12.6221  21.8373  33.8111
    35.7338  36.9087

          k =-0.4062 0.5312-0.3438 (   689 PWs)   bands (ev):

     9.1076  10.9463  11.1127  11.6189  12.4025  13.3225  19.5528  33.9520
    34.8578  36.5822

          k = 0.5312-0.4062 0.5938 (   687 PWs)   bands (ev):

     9.1958  10.9209  11.0845  11.8514  12.4298  14.0352  18.2447  33.8345
    34.6440  36.6085

          k = 0.4688-0.3438 0.5312 (   685 PWs)   bands (ev):

     9.1560  10.9405  11.0928  11.7605  12.3722  13.6341  18.9564  33.3460
    35.3149  36.9013

          k = 0.4062-0.2812 0.4688 (   685 PWs)   bands (ev):

     8.9287  11.0005  11.1351  11.3303  12.2324  12.8746  21.0174  33.0714
    36.2591  37.4569

          k = 0.3438-0.2188 0.4062 (   677 PWs)   bands (ev):

     8.3370  10.8719  11.0868  11.2059  12.0309  12.4541  23.6133  33.0561
    37.2845  38.3241

          k = 0.2812-0.1562 0.3438 (   680 PWs)   bands (ev):

     7.4529  10.7228  11.1737  11.2694  11.8298  12.1981  26.5284  33.2940
    38.1664  39.5769

          k = 0.2188-0.0938 0.2812 (   678 PWs)   bands (ev):

     6.5723  10.7601  11.2210  11.2770  11.7129  12.0208  29.6889  33.7754
    38.8496  41.0641

          k = 0.1562-0.0312 0.2188 (   683 PWs)   bands (ev):

     5.8666  10.8568  11.1984  11.2028  11.7231  11.9233  33.0048  34.5308
    39.2367  40.7214

          k = 0.0938 0.0312 0.1562 (   688 PWs)   bands (ev):

     5.4056  10.9485  11.1239  11.1328  11.7851  11.8807  35.1865  36.7303
    38.8010  40.1994

          k =-0.0312 0.2812 0.0312 (   682 PWs)   bands (ev):

     5.9584  10.7793  11.2688  11.2707  11.6368  11.9585  34.3332  35.3210
    36.1142  37.7266

          k =-0.0938 0.3438-0.0312 (   682 PWs)   bands (ev):

     6.4899  10.6656  11.3162  11.3743  11.6122  12.0136  32.1891  33.5446
    36.3730  37.6453

          k =-0.1562 0.4062-0.0938 (   682 PWs)   bands (ev):

     7.2374  10.5643  11.2274  11.4277  11.7894  12.1229  28.9398  32.8349
    35.7470  37.1750

          k =-0.2188 0.4688-0.1562 (   682 PWs)   bands (ev):

     8.1029  10.5288  11.0905  11.4091  12.0919  12.3260  25.8614  32.4000
    34.6782  36.3093

          k =-0.2812 0.5312-0.2188 (   687 PWs)   bands (ev):

     8.8681  10.6403  10.9860  11.3520  12.3213  12.8054  23.0312  32.2312
    33.3982  35.9307

          k =-0.3438 0.5938-0.2812 (   688 PWs)   bands (ev):

     9.2825  10.7608  11.1022  11.2915  12.4246  13.6859  20.5339  32.0179
    32.5759  35.8452

          k = 0.5938-0.3438 0.6562 (   687 PWs)   bands (ev):

     9.4155  10.7501  11.2397  11.3527  12.4348  14.7575  18.6753  31.1518
    32.9379  36.0068

          k = 0.5312-0.2812 0.5938 (   685 PWs)   bands (ev):

     9.4232  10.7718  11.2277  11.3790  12.3567  14.7873  18.6798  30.4601
    33.6876  36.4312

          k = 0.4688-0.2188 0.5312 (   683 PWs)   bands (ev):

     9.3047  10.8438  11.1238  11.2591  12.2017  13.8022  20.5460  30.0374
    34.7236  37.1442

          k = 0.4062-0.1562 0.4688 (   684 PWs)   bands (ev):

     8.8951  10.7693  10.9553  11.3127  11.9905  13.0360  23.0459  29.8932
    36.0051  38.1634

          k = 0.3438-0.0938 0.4062 (   682 PWs)   bands (ev):

     8.1183  10.6180  11.0775  11.3890  11.7638  12.5701  25.8735  30.0257
    37.4907  39.4719

          k = 0.2812-0.0312 0.3438 (   678 PWs)   bands (ev):

     7.2415  10.6500  11.1798  11.4211  11.6130  12.2543  28.9147  30.4615
    39.1309  40.7455

          k = 0.2188 0.0312 0.2812 (   682 PWs)   bands (ev):

     6.4889  10.7512  11.2243  11.3053  11.6597  12.0367  30.8979  32.4223
    39.8164  40.8529

          k = 0.1562 0.0938 0.2188 (   683 PWs)   bands (ev):

     5.9563  10.8555  11.1974  11.2020  11.7501  11.9083  31.8119  35.8562
    38.3632  40.5617

          k =-0.0312 0.4062 0.0312 (   683 PWs)   bands (ev):

     6.9132  10.5348  11.4120  11.4966  11.5647  12.0564  32.4033  33.1119
    34.7362  35.5610

          k =-0.0938 0.4688-0.0312 (   681 PWs)   bands (ev):

     7.5443  10.4097  11.3062  11.6213  11.7602  12.1411  30.4281  31.6372
    34.0924  35.2561

          k =-0.1562 0.5312-0.0938 (   685 PWs)   bands (ev):

     8.2992  10.3219  11.1565  11.6412  12.1149  12.3423  27.3634  31.0724
    32.4903  35.2644

          k =-0.2188 0.5938-0.1562 (   686 PWs)   bands (ev):

     9.0118  10.3142  11.0284  11.5982  12.3455  12.9333  24.4601  30.7018
    31.1065  35.1138

          k =-0.2812 0.6562-0.2188 (   687 PWs)   bands (ev):

     9.4690  10.4010  10.9849  11.5339  12.4433  13.9639  21.8143  29.6093
    30.9696  35.0939

          k = 0.6562-0.2812 0.7188 (   689 PWs)   bands (ev):

     9.6606  10.4736  11.0551  11.4734  12.4478  15.3163  19.5679  28.5527
    31.3639  35.2618

          k = 0.5938-0.2188 0.6562 (   690 PWs)   bands (ev):

     9.7270  10.5229  11.0862  11.4340  12.3612  16.0663  18.6402  27.7462
    32.0861  35.6536

          k = 0.5312-0.1562 0.5938 (   689 PWs)   bands (ev):

     9.7031  10.6146  10.9387  11.4308  12.1982  14.9902  20.2621  27.2144
    33.1026  36.3028

          k = 0.4688-0.0938 0.5312 (   686 PWs)   bands (ev):

     9.4782  10.6632  10.7635  11.4621  11.9837  13.8687  22.6754  26.9734
    34.3747  37.2358

          k = 0.4062-0.0312 0.4688 (   679 PWs)   bands (ev):

     8.8775  10.5358  10.9231  11.5184  11.7535  13.1041  25.3541  27.0782
    35.8587  38.4545

          k = 0.3438 0.0312 0.4062 (   682 PWs)   bands (ev):

     8.0695  10.5723  11.0737  11.5034  11.6323  12.5942  27.0670  28.6732
    37.4914  39.8227

          k = 0.2812 0.0938 0.3438 (   679 PWs)   bands (ev):

     7.3131  10.6738  11.1781  11.3452  11.7108  12.2346  27.7056  31.8216
    38.8298  40.0873

          k = 0.2188 0.1562 0.2812 (   680 PWs)   bands (ev):

     6.7369  10.7757  11.2151  11.2414  11.7958  11.9951  28.5117  35.2272
    37.8333  40.0939

          k =-0.0312 0.5312 0.0312 (   685 PWs)   bands (ev):

     8.0225  10.2636  11.4284  11.7750  11.8362  12.1684  30.6406  31.1925
    32.0747  33.7825

          k =-0.0938 0.5938-0.0312 (   685 PWs)   bands (ev):

     8.5859  10.1476  11.4194  11.9042  12.1118  12.3234  28.9035  29.9366
    30.4240  34.2000

          k =-0.1562 0.6562-0.0938 (   685 PWs)   bands (ev):

     9.1115  10.0876  11.3196  11.8839  12.3528  13.0009  26.0744  28.7057
    29.6833  34.4015

          k =-0.2188 0.7188-0.1562 (   685 PWs)   bands (ev):

     9.4973  10.1019  11.2127  11.8202  12.4579  14.1630  23.3656  27.3349
    29.6467  34.4515

          k = 0.7188-0.2188 0.7812 (   691 PWs)   bands (ev):

     9.7387  10.1711  11.1210  11.7475  12.4671  15.6792  20.9133  26.1961
    29.9729  34.6061

          k = 0.6562-0.1562 0.7188 (   692 PWs)   bands (ev):

     9.9039  10.2505  11.0206  11.6823  12.3835  17.2115  19.0495  25.3177
    30.6383  34.9344

          k = 0.5938-0.0938 0.6562 (   689 PWs)   bands (ev):

    10.0019  10.3581  10.8551  11.6361  12.2288  16.4364  20.0861  24.7307
    31.6112  35.4737

          k = 0.5312-0.0312 0.5938 (   689 PWs)   bands (ev):

     9.9342  10.5319  10.6392  11.6035  12.0433  14.9980  22.2975  24.5464
    32.8491  36.2476

          k = 0.4688 0.0312 0.5312 (   682 PWs)   bands (ev):

     9.5323  10.5550  10.7398  11.5444  11.8987  13.8794  23.7678  25.6971
    34.3033  37.2505

          k = 0.4062 0.0938 0.4688 (   684 PWs)   bands (ev):

     8.8839  10.6128  10.9348  11.4195  11.8629  13.0816  24.1969  28.4048
    35.9094  38.3602

          k = 0.3438 0.1562 0.4062 (   684 PWs)   bands (ev):

     8.2107  10.7148  11.0831  11.2884  11.8982  12.5227  24.7038  31.5092
    37.4548  38.9112

          k = 0.2812 0.2188 0.3438 (   680 PWs)   bands (ev):

     7.6537  10.7986  11.1642  11.2095  11.9522  12.1537  25.4263  34.8116
    37.3176  39.0171

          k =-0.0312 0.6562 0.0312 (   689 PWs)   bands (ev):

     8.8859  10.0075  11.8649  12.0676  12.2781  12.2809  28.3749  29.2000
    29.6220  33.0402

          k =-0.0938 0.7188-0.0312 (   688 PWs)   bands (ev):

     9.1513   9.9190  11.8643  12.1782  12.3418  13.0774  26.7051  27.7424
    28.7318  33.5121

          k =-0.1562 0.7812-0.0938 (   684 PWs)   bands (ev):

     9.3785   9.8988  11.7070  12.1094  12.4679  14.3419  25.0132  25.4356
    28.5885  33.8760

          k = 0.7812-0.1562 0.8438 (   689 PWs)   bands (ev):

     9.5835   9.9482  11.5051  12.0246  12.4930  15.9095  22.5919  24.1911
    28.8203  34.0743

          k = 0.7188-0.0938 0.7812 (   693 PWs)   bands (ev):

     9.7877  10.0457  11.2687  11.9332  12.4249  17.6868  20.3219  23.3346
    29.4098  34.3593

          k = 0.6562-0.0312 0.7188 (   688 PWs)   bands (ev):

     9.9959  10.1600  11.0068  11.8309  12.3007  18.1450  19.6948  22.9376
    30.3237  34.8040

          k = 0.5938 0.0312 0.6562 (   686 PWs)   bands (ev):

    10.0820  10.3218  10.7854  11.7000  12.1792  16.4463  20.9361  23.6302
    31.5157  35.4392

          k = 0.5312 0.0938 0.5938 (   685 PWs)   bands (ev):

     9.8393  10.5589  10.7586  11.5320  12.1090  14.9999  21.3045  25.7455
    32.9338  36.2659

          k = 0.4688 0.1562 0.5312 (   687 PWs)   bands (ev):

     9.3945  10.7905  10.8719  11.3573  12.0937  13.8446  21.5614  28.4584
    34.5159  37.2028

          k = 0.4062 0.2188 0.4688 (   683 PWs)   bands (ev):

     8.9098  10.9775  11.0084  11.2188  12.1160  12.9666  21.9802  31.4593
    36.1318  37.8571

          k = 0.3438 0.2812 0.4062 (   678 PWs)   bands (ev):

     8.4846  11.0842  11.0952  11.1455  12.1595  12.3700  22.6111  34.6235
    36.8314  37.8905

          k =-0.0312 0.7812 0.0312 (   688 PWs)   bands (ev):

     9.1884   9.8039  12.2976  12.2992  12.4022  13.5369  25.0261  28.0813
    28.4657  32.5598

          k =-0.0938 0.8438-0.0312 (   686 PWs)   bands (ev):

     9.2632   9.7567  12.2083  12.3536  12.4821  14.6367  23.6203  26.9012
    27.8449  33.0978

          k = 0.8438-0.0938 0.9062 (   689 PWs)   bands (ev):

     9.3891   9.7854  11.9889  12.2504  12.5300  16.0387  22.5441  24.6017
    27.9615  33.6015

          k = 0.7812-0.0312 0.8438 (   691 PWs)   bands (ev):

     9.5667   9.8832  11.6650  12.1397  12.4855  17.4855  21.7540  22.5344
    28.4571  33.9216

          k = 0.7188 0.0312 0.7812 (   694 PWs)   bands (ev):

     9.7845  10.0254  11.3050  11.9839  12.4038  18.4901  20.1071  22.4570
    29.2958  34.3119

          k = 0.6562 0.0938 0.7188 (   692 PWs)   bands (ev):

     9.9689  10.1869  11.0112  11.7734  12.3360  17.9225  19.1928  23.9296
    30.4288  34.8468

          k = 0.5938 0.1562 0.6562 (   692 PWs)   bands (ev):

     9.8748  10.4274  10.9630  11.5395  12.2971  16.3553  19.2112  26.1673
    31.8017  35.5441

          k = 0.5312 0.2188 0.5938 (   689 PWs)   bands (ev):

     9.5596  10.6893  11.1487  11.3263  12.2849  14.9373  19.3572  28.7984
    33.3543  36.3583

          k = 0.4688 0.2812 0.5312 (   684 PWs)   bands (ev):

     9.2226  10.8951  11.1619  11.4359  12.2968  13.7342  19.6665  31.6792
    34.9921  37.0484

          k = 0.4062 0.3438 0.4688 (   683 PWs)   bands (ev):

     8.9545  11.0140  11.0805  11.7074  12.3354  12.7706  20.1689  34.6717
    36.3018  37.0496

          k =-0.0312 0.9062 0.0312 (   688 PWs)   bands (ev):

     9.2178   9.6812  12.3872  12.4996  12.5428  15.2224  22.3555  27.4317
    27.7923  32.3031

          k = 0.9062-0.0312 0.9688 (   692 PWs)   bands (ev):

     9.2578   9.6831  12.3613  12.3955  12.5758  16.0124  21.6516  26.5296
    27.4516  32.9255

          k = 0.8438 0.0312 0.9062 (   695 PWs)   bands (ev):

     9.3818   9.7621  12.0511  12.2760  12.5435  16.6295  21.7570  24.4829
    27.8335  33.5479

          k = 0.7812 0.0938 0.8438 (   689 PWs)   bands (ev):

     9.5756   9.9046  11.6096  12.0985  12.4908  16.8198  22.2500  23.0094
    28.5789  33.9719

          k = 0.7188 0.1562 0.7812 (   691 PWs)   bands (ev):

     9.7797  10.0927  11.2029  11.8490  12.4508  16.6781  20.5836  24.6596
    29.6364  34.4561

          k = 0.6562 0.2188 0.7188 (   691 PWs)   bands (ev):

     9.8000  10.3488  11.0353  11.5782  12.4242  16.2632  19.2332  26.8805
    30.9505  35.0708

          k = 0.5938 0.2812 0.6562 (   688 PWs)   bands (ev):

     9.5718  10.6346  11.2153  11.3331  12.4092  15.4916  18.4971  29.4181
    32.4638  35.8062

          k = 0.5312 0.3438 0.5938 (   684 PWs)   bands (ev):

     9.3008  10.8517  11.1468  11.6155  12.4066  14.4859  18.3039  32.1684
    34.1042  36.5175

          k = 0.4688 0.4062 0.5312 (   687 PWs)   bands (ev):

     9.1095  10.9745  11.0440  12.0703  12.4218  13.5069  18.4525  34.9201
    35.7090  36.6961

          k =-0.0312-0.9688 0.0312 (   692 PWs)   bands (ev):

     9.2141   9.6558  12.4011  12.5411  12.5778  15.7753  21.6151  27.2985
    27.6546  32.2527

          k =-0.0938-0.9062-0.0312 (   688 PWs)   bands (ev):

     9.2626   9.7079  12.3059  12.3875  12.5421  15.4542  22.4040  26.6546
    27.5837  32.9826

          k =-0.1562-0.8438-0.0938 (   685 PWs)   bands (ev):

     9.3949   9.8315  11.8717  12.1945  12.5047  15.1973  23.7782  24.8452
    28.2147  33.7099

          k =-0.2188-0.7812-0.1562 (   687 PWs)   bands (ev):

     9.5693  10.0146  11.3647  11.9287  12.4837  14.9916  22.9405  25.6865
    29.1776  34.2322

          k =-0.2812-0.7188-0.2188 (   690 PWs)   bands (ev):

     9.6420  10.2773  11.0417  11.6397  12.4659  14.7624  21.3232  27.8602
    30.4165  34.8157

          k =-0.3438-0.6562-0.2812 (   688 PWs)   bands (ev):

     9.4879  10.6149  11.0783  11.3759  12.4490  14.4455  20.0064  30.2993
    31.8814  35.5157

          k =-0.4062-0.5938-0.3438 (   687 PWs)   bands (ev):

     9.2607  10.8571  11.1666  11.4888  12.4338  14.0076  19.0471  32.8612
    33.5618  36.2612

          k =-0.0312-0.8438 0.0312 (   684 PWs)   bands (ev):

     9.2162   9.7311  12.3568  12.4182  12.4786  14.3999  23.5615  27.6947
    28.0647  32.4049

          k =-0.0938-0.7812-0.0312 (   685 PWs)   bands (ev):

     9.2388   9.8279  12.0637  12.2849  12.4118  13.7961  25.0893  27.2643
    28.2297  33.2733

          k =-0.1562-0.7188-0.0938 (   685 PWs)   bands (ev):

     9.3020   9.9854  11.5097  12.0028  12.4182  13.5902  25.5426  26.9786
    29.0774  34.1042

          k =-0.2188-0.6562-0.1562 (   687 PWs)   bands (ev):

     9.3214  10.2044  11.0883  11.7077  12.4129  13.4708  23.8730  29.0788
    30.2294  34.7406

          k =-0.2812-0.5938-0.2188 (   686 PWs)   bands (ev):

     9.2086  10.5279  10.9647  11.4363  12.3966  13.3069  22.3843  31.3012
    31.7437  35.4553

          k =-0.3438-0.5312-0.2812 (   689 PWs)   bands (ev):

     9.0441  10.8970  11.1215  11.2246  12.3709  13.0667  21.1448  33.0379
    34.0670  36.2762

          k =-0.0312-0.7188 0.0312 (   688 PWs)   bands (ev):

     9.0962   9.8971  12.1274  12.1989  12.3372  12.7816  26.6495  28.5839
    28.9877  32.7703

          k =-0.0938-0.6562-0.0312 (   690 PWs)   bands (ev):

     8.9465  10.0269  11.6235  12.0466  12.2579  12.5772  28.1832  28.5514
    29.3548  33.8189

          k =-0.1562-0.5938-0.0938 (   684 PWs)   bands (ev):

     8.7692  10.2014  11.1942  11.7612  12.2617  12.5860  26.6814  30.2342
    30.6731  34.7798

          k =-0.2188-0.5312-0.1562 (   682 PWs)   bands (ev):

     8.5877  10.4241  11.0374  11.4972  12.2451  12.5520  25.1237  31.5669
    32.8713  35.6013

          k =-0.2812-0.4688-0.2188 (   688 PWs)   bands (ev):

     8.4731  10.7229  11.0425  11.2845  12.2044  12.4700  23.7537  33.0389
    35.1582  36.6301

          k =-0.0312-0.5938 0.0312 (   691 PWs)   bands (ev):

     8.5194  10.1311  11.5805  11.9228  12.0184  12.2252  29.8284  30.2588
    30.3598  33.3745

          k =-0.0938-0.5312-0.0312 (   684 PWs)   bands (ev):

     8.0950  10.2768  11.3188  11.7603  11.9227  12.2166  29.6345  30.7719
    32.2453  34.6665

          k =-0.1562-0.4688-0.0938 (   685 PWs)   bands (ev):

     7.7686  10.4445  11.1814  11.5290  11.9337  12.2157  28.1170  31.9239
    34.3232  35.9450

          k =-0.2188-0.4062-0.1562 (   682 PWs)   bands (ev):

     7.6100  10.6248  11.1552  11.3364  11.9321  12.1943  26.6720  33.2908
    36.0536  37.5964

          k =-0.0312-0.4688 0.0312 (   683 PWs)   bands (ev):

     7.4661  10.3999  11.3950  11.6312  11.6818  12.1116  31.4946  32.1124
    33.8233  34.3205

          k =-0.0938-0.4062-0.0312 (   682 PWs)   bands (ev):

     6.9962  10.5410  11.3276  11.4916  11.6452  12.0743  31.2813  32.5632
    35.5340  36.2546

          k =-0.1562-0.3438-0.0938 (   679 PWs)   bands (ev):

     6.7445  10.6763  11.2527  11.3393  11.7131  12.0413  29.8304  33.8002
    36.6701  38.9990

          k =-0.0312-0.3438 0.0312 (   682 PWs)   bands (ev):

     6.4031  10.6630  11.3635  11.3755  11.5634  12.0048  33.3549  34.1840
    35.3900  36.7643

          k =-0.0938-0.2812-0.0312 (   680 PWs)   bands (ev):

     6.0482  10.7784  11.2565  11.2720  11.6564  11.9600  33.1469  34.5738
    37.1766  38.7664

          k =-0.0312-0.2188 0.0312 (   685 PWs)   bands (ev):

     5.5920  10.8789  11.1839  11.1847  11.7158  11.9193  35.3175  36.5123
    36.9168  38.5975

          k =-0.0938 0.0938 0.0938 (   685 PWs)   bands (ev):

     5.3117  10.9813  11.1033  11.1033  11.8392  11.8392  35.1581  38.4887
    39.1778  39.1778

          k =-0.1562 0.1562 0.0312 (   684 PWs)   bands (ev):

     5.5914  10.9172  11.1494  11.1603  11.7682  11.8874  34.0736  35.6180
    39.4860  40.6851

          k =-0.2188 0.2188-0.0312 (   682 PWs)   bands (ev):

     6.1367  10.8166  11.2126  11.2407  11.6973  11.9644  31.9192  33.4490
    40.0507  41.4171

          k =-0.2812 0.2812-0.0938 (   677 PWs)   bands (ev):

     6.9090  10.7270  11.2064  11.3045  11.6996  12.1136  28.6610  32.7698
    39.6117  40.9511

          k =-0.3438 0.3438-0.1562 (   680 PWs)   bands (ev):

     7.8139  10.7269  11.1407  11.2680  11.8410  12.3436  25.5779  32.3726
    38.5426  39.5593

          k =-0.4062 0.4062-0.2188 (   678 PWs)   bands (ev):

     8.6278  10.9600  11.0499  11.1936  12.0450  12.6706  22.7563  32.2283
    37.5259  37.9604

          k =-0.4688 0.4688-0.2812 (   686 PWs)   bands (ev):

     9.0773  10.9634  11.1329  11.4427  12.2391  13.2343  20.2926  32.3461
    36.5892  36.7185

          k = 0.4688-0.4688 0.6562 (   685 PWs)   bands (ev):

     9.2198  10.9088  11.1045  11.7454  12.3807  14.0450  18.5245  32.7331
    35.5105  36.1625

          k = 0.4062-0.4062 0.5938 (   689 PWs)   bands (ev):

     9.2179  10.8981  11.1136  11.7089  12.4434  14.0243  18.5224  33.3804
    34.7465  35.8741

          k = 0.3438-0.3438 0.5312 (   688 PWs)   bands (ev):

     9.0716  10.9334  11.1560  11.3779  12.4187  13.1368  20.2875  34.2276
    34.3031  35.8922

          k = 0.2812-0.2812 0.4688 (   685 PWs)   bands (ev):

     8.6205  10.8925  11.0436  11.2186  12.3185  12.4582  22.7502  34.1745
    35.0408  36.4103

          k = 0.2188-0.2188 0.4062 (   683 PWs)   bands (ev):

     7.8095  10.6884  11.1347  11.2783  12.0513  12.1760  25.5720  34.3468
    35.5719  37.6220

          k = 0.1562-0.1562 0.3438 (   682 PWs)   bands (ev):

     6.9077  10.6910  11.2313  11.3018  11.7902  12.0409  28.6578  34.8034
    36.0181  39.2298

          k = 0.0938-0.0938 0.2812 (   683 PWs)   bands (ev):

     6.1370  10.7788  11.2510  11.2633  11.6828  11.9571  31.9530  35.5294
    36.4934  39.8026

          k =-0.0938 0.2188 0.0938 (   683 PWs)   bands (ev):

     5.7753  10.8705  11.1884  11.1927  11.7385  11.9067  32.9711  36.7228
    37.2238  40.4249

          k =-0.1562 0.2812 0.0312 (   679 PWs)   bands (ev):

     6.2261  10.7716  11.2393  11.2808  11.6718  11.9794  31.9914  33.4907
    38.5252  39.9120

          k =-0.2188 0.3438-0.0312 (   680 PWs)   bands (ev):

     6.9145  10.6648  11.2168  11.3927  11.6448  12.1314  29.9425  31.4587
    38.6520  39.5271

          k =-0.2812 0.4062-0.0938 (   681 PWs)   bands (ev):

     7.7691  10.6033  11.1207  11.4011  11.7754  12.3814  26.8229  30.9386
    37.0841  39.1621

          k =-0.3438 0.4688-0.1562 (   684 PWs)   bands (ev):

     8.6173  10.6823  10.9998  11.3375  12.0033  12.7576  23.9056  30.7134
    35.5765  38.5027

          k =-0.4062 0.5312-0.2188 (   682 PWs)   bands (ev):

     9.1681  10.8666  11.0163  11.2762  12.2162  13.3924  21.2846  30.7602
    34.2619  37.8724

          k = 0.5312-0.4062 0.7188 (   687 PWs)   bands (ev):

     9.3674  10.8008  11.2151  11.3587  12.3559  14.3646  19.1483  31.0793
    33.1950  37.3786

          k = 0.4688-0.3438 0.6562 (   687 PWs)   bands (ev):

     9.3994  10.7757  11.2131  11.4368  12.4129  14.8564  18.3654  31.6212
    32.4548  37.0818

          k = 0.4062-0.2812 0.5938 (   685 PWs)   bands (ev):

     9.3217  10.8011  11.2031  11.2838  12.3866  13.9903  19.7761  31.7111
    32.7247  37.0001

          k = 0.3438-0.2188 0.5312 (   684 PWs)   bands (ev):

     9.0215  10.7851  10.9682  11.3076  12.2648  13.0670  22.1135  31.5209
    33.8177  37.1248

          k = 0.2812-0.1562 0.4688 (   684 PWs)   bands (ev):

     8.3459  10.5981  11.0425  11.3707  12.0454  12.5250  24.8442  31.5757
    35.1591  37.4441

          k = 0.2188-0.0938 0.4062 (   679 PWs)   bands (ev):

     7.4709  10.5837  11.1688  11.4133  11.7976  12.2274  27.8459  31.8979
    36.5829  37.9818

          k = 0.1562-0.0312 0.3438 (   679 PWs)   bands (ev):

     6.6617  10.6680  11.2620  11.3788  11.6490  12.0497  31.0369  32.5056
    37.6689  38.5246

          k =-0.0938 0.3438 0.0938 (   683 PWs)   bands (ev):

     6.5755  10.6700  11.2947  11.3501  11.6640  12.0161  30.9942  34.3932
    35.7871  38.4506

          k =-0.1562 0.4062 0.0312 (   679 PWs)   bands (ev):

     7.1599  10.5518  11.2441  11.4919  11.6916  12.1327  30.1433  31.5793
    36.3044  37.3030

          k =-0.2188 0.4688-0.0312 (   685 PWs)   bands (ev):

     7.9208  10.4537  11.1128  11.6127  11.7795  12.3881  28.2318  29.7325
    34.7161  38.0456

          k =-0.2812 0.5312-0.0938 (   686 PWs)   bands (ev):

     8.7264  10.4280  10.9641  11.5722  12.0255  12.8215  25.2757  29.3809
    33.1041  37.9298

          k =-0.3438 0.5938-0.1562 (   686 PWs)   bands (ev):

     9.3315  10.5291  10.8658  11.5034  12.2429  13.5665  22.5354  29.3389
    31.7035  37.7380

          k = 0.5938-0.3438 0.7812 (   687 PWs)   bands (ev):

     9.5931  10.5856  10.9796  11.4385  12.3658  14.7070  20.1370  29.5592
    30.5739  37.6737

          k = 0.5312-0.2812 0.7188 (   683 PWs)   bands (ev):

     9.6639  10.5686  11.1225  11.3934  12.3938  15.7861  18.5729  29.4874
    30.2869  37.7878

          k = 0.4688-0.2188 0.6562 (   691 PWs)   bands (ev):

     9.6422  10.5995  11.0420  11.4075  12.3383  15.1576  19.4656  28.9127
    31.0588  38.0964

          k = 0.4062-0.1562 0.5938 (   685 PWs)   bands (ev):

     9.4763  10.6390  10.8297  11.4614  12.1996  13.9638  21.6946  28.5720
    32.1473  38.5774

          k = 0.3438-0.0938 0.5312 (   684 PWs)   bands (ev):

     8.9853  10.5025  10.8901  11.5311  11.9837  13.1142  24.3362  28.5160
    33.4877  39.1512

          k = 0.2812-0.0312 0.4688 (   684 PWs)   bands (ev):

     8.2031  10.4829  11.0394  11.6005  11.7397  12.5885  27.2081  28.7815
    35.0494  39.5799

          k = 0.2188 0.0312 0.4062 (   680 PWs)   bands (ev):

     7.3995  10.5637  11.1753  11.4967  11.6843  12.2463  29.0535  30.5615
    36.7358  38.7200

          k =-0.0938 0.4688 0.0938 (   684 PWs)   bands (ev):

     7.6201  10.4214  11.2566  11.5649  11.8664  12.1502  29.2622  32.3292
    33.9532  35.3224

          k =-0.1562 0.5312 0.0312 (   682 PWs)   bands (ev):

     8.2366  10.3028  11.1858  11.7518  11.9433  12.3616  28.5471  29.9139
    32.4668  35.9682

          k =-0.2188 0.5938-0.0312 (   682 PWs)   bands (ev):

     8.8980  10.2287  11.0625  11.8725  12.0448  12.8568  26.7983  28.2854
    30.7945  36.9385

          k =-0.2812 0.6562-0.0938 (   684 PWs)   bands (ev):

     9.4390  10.2331  10.9450  11.7965  12.2663  13.7155  24.0268  28.1021
    29.3337  37.0440

          k = 0.6562-0.2812 0.8438 (   685 PWs)   bands (ev):

     9.7470  10.2970  10.8994  11.7070  12.3876  14.9891  21.4740  27.9019
    28.4641  37.1330

          k = 0.5938-0.2188 0.7812 (   689 PWs)   bands (ev):

     9.8982  10.3228  10.9268  11.6277  12.4053  16.5011  19.3517  27.0080
    28.8473  37.3967

          k = 0.5312-0.1562 0.7188 (   691 PWs)   bands (ev):

     9.9631  10.3591  10.8774  11.5950  12.3332  16.5633  19.3307  26.2956
    29.6069  37.8871

          k = 0.4688-0.0938 0.6562 (   685 PWs)   bands (ev):

     9.9046  10.4726  10.6866  11.6244  12.1849  15.1363  21.4502  25.8672
    30.6409  38.6256

          k = 0.4062-0.0312 0.5938 (   685 PWs)   bands (ev):

     9.5968  10.4548  10.6942  11.6786  11.9833  13.9521  23.9221  25.8079
    31.9200  39.5901

          k = 0.3438 0.0312 0.5312 (   682 PWs)   bands (ev):

     8.9757  10.4422  10.8767  11.6536  11.8471  13.1273  25.5000  27.1898
    33.4210  40.1683

          k = 0.2812 0.0938 0.4688 (   686 PWs)   bands (ev):

     8.2525  10.5199  11.0409  11.4769  11.8887  12.5667  26.0128  30.1242
    35.0927  38.4937

          k =-0.0938 0.5938 0.0938 (   684 PWs)   bands (ev):

     8.6485  10.1654  11.3306  11.8140  12.2891  12.3387  27.7933  30.3978
    30.5903  34.1270

          k =-0.1562 0.6562 0.0312 (   687 PWs)   bands (ev):

     9.0636  10.0655  11.3728  12.0316  12.2168  12.9149  27.2257  28.3815
    28.8781  35.0497

          k =-0.2188 0.7188-0.0312 (   684 PWs)   bands (ev):

     9.4075  10.0287  11.2928  12.1114  12.2775  13.8766  25.6663  26.9129
    27.4288  36.1442

          k = 0.7188-0.2188 0.9062 (   683 PWs)   bands (ev):

     9.6594  10.0634  11.1751  11.9918  12.4181  15.2351  23.0988  25.8041
    27.2853  36.4533

          k = 0.6562-0.1562 0.8438 (   690 PWs)   bands (ev):

     9.8554  10.1343  11.0462  11.8731  12.4464  16.9021  20.7386  24.7842
    27.6683  36.7468

          k = 0.5938-0.0938 0.7812 (   694 PWs)   bands (ev):

    10.0502  10.1867  10.8866  11.7832  12.3812  18.1349  19.3386  24.0456
    28.3682  37.2123

          k = 0.5312-0.0312 0.7188 (   686 PWs)   bands (ev):

    10.1767  10.2707  10.6747  11.7399  12.2529  16.5996  21.1207  23.7298
    29.3423  37.8845

          k = 0.4688 0.0312 0.6562 (   686 PWs)   bands (ev):

     9.9929  10.4716  10.5519  11.6999  12.1221  15.1189  22.4644  24.6529
    30.5593  38.7116

          k = 0.4062 0.0938 0.5938 (   687 PWs)   bands (ev):

     9.5499  10.5299  10.7339  11.5793  12.0827  13.9560  22.8165  27.0921
    31.9953  39.2211

          k = 0.3438 0.1562 0.5312 (   683 PWs)   bands (ev):

     9.0017  10.6225  10.9166  11.4115  12.1292  13.0910  23.1827  29.9897
    33.6206  38.1086

          k =-0.0938 0.7188 0.0938 (   685 PWs)   bands (ev):

     9.2030   9.9410  11.7354  12.0586  12.4139  13.2725  26.5305  26.9324
    29.2347  33.4959

          k =-0.1562 0.7812 0.0312 (   685 PWs)   bands (ev):

     9.3360   9.8760  11.7699  12.2492  12.3954  14.1853  25.2100  26.2893
    27.5936  34.4430

          k = 0.7812-0.1562 0.9688 (   684 PWs)   bands (ev):

     9.4799   9.8856  11.6314  12.2170  12.4705  15.5064  23.9098  24.9397
    26.4802  35.6497

          k = 0.7188-0.0938 0.9062 (   690 PWs)   bands (ev):

     9.6437   9.9656  11.4193  12.0791  12.5132  17.0883  22.4261  23.0993
    26.7411  36.1344

          k = 0.6562-0.0312 0.8438 (   694 PWs)   bands (ev):

     9.8347  10.0873  11.1517  11.9460  12.4652  18.7365  20.2838  22.5359
    27.3639  36.5829

          k = 0.5938 0.0312 0.7812 (   694 PWs)   bands (ev):

    10.0519  10.1887  10.8773  11.8220  12.3691  18.3188  19.9010  23.0283
    28.2737  37.1738

          k = 0.5312 0.0938 0.7188 (   689 PWs)   bands (ev):

    10.0954  10.2932  10.7600  11.6841  12.2869  16.6069  20.2390  24.8514
    29.4301  37.8882

          k = 0.4688 0.1562 0.6562 (   687 PWs)   bands (ev):

     9.7770  10.5223  10.8560  11.5179  12.2659  15.1590  20.3913  27.3380
    30.8055  38.4297

          k = 0.4062 0.2188 0.5938 (   687 PWs)   bands (ev):

     9.3960  10.7307  11.0028  11.3514  12.3053  13.9753  20.6695  30.1330
    32.3808  37.8002

          k =-0.0938 0.8438 0.0938 (   685 PWs)   bands (ev):

     9.3082   9.7816  12.1113  12.2474  12.5083  14.8424  23.6766  25.8815
    28.3264  33.1254

          k = 0.8438-0.0938 1.0312 (   689 PWs)   bands (ev):

     9.3485   9.7616  12.0573  12.3129  12.5404  15.8558  22.5024  25.7010
    26.9917  34.1164

          k = 0.7812-0.0312 0.9688 (   692 PWs)   bands (ev):

     9.4583   9.8205  11.8259  12.2186  12.5755  16.9811  21.8408  24.5866
    26.1397  35.4409

          k = 0.7188 0.0312 0.9062 (   692 PWs)   bands (ev):

     9.6307   9.9464  11.4795  12.0883  12.5361  17.7762  21.8954  22.6376
    26.6329  36.0715

          k = 0.6562 0.0938 0.8438 (   693 PWs)   bands (ev):

     9.8469  10.1004  11.1132  11.9223  12.4591  17.9189  20.4853  23.4419
    27.4653  36.6374

          k = 0.5938 0.1562 0.7812 (   693 PWs)   bands (ev):

    10.0001  10.2302  10.9039  11.7146  12.3969  17.4475  19.1651  25.4462
    28.5578  37.2880

          k = 0.5312 0.2188 0.7188 (   687 PWs)   bands (ev):

     9.8151  10.4547  11.0010  11.4935  12.3727  16.3251  18.7254  27.8704
    29.8779  37.8631

          k = 0.4688 0.2812 0.6562 (   687 PWs)   bands (ev):

     9.5142  10.6883  11.2317  11.3103  12.3895  15.0779  18.7621  30.5193
    31.4386  37.6309

          k =-0.0938-1.0312 0.0938 (   692 PWs)   bands (ev):

     9.3003   9.7094  12.2733  12.3356  12.5553  16.2321  21.6869  25.5231
    27.9241  32.9720

          k =-0.1562-0.9688 0.0312 (   691 PWs)   bands (ev):

     9.3416   9.7379  12.1284  12.3088  12.5755  16.4331  21.7260  25.5819
    26.8693  34.0521

          k =-0.2188-0.9062-0.0312 (   687 PWs)   bands (ev):

     9.4684   9.8425  11.7557  12.2235  12.5389  16.3669  22.6527  24.7036
    26.2533  35.5103

          k =-0.2812-0.8438-0.0938 (   686 PWs)   bands (ev):

     9.6605  10.0044  11.3113  12.0502  12.4722  16.1617  22.7563  24.3058
    26.9570  36.2611

          k =-0.3438-0.7812-0.1562 (   686 PWs)   bands (ev):

     9.8313  10.1997  10.9677  11.7994  12.4244  15.9017  21.0649  26.3215
    27.9772  36.9118

          k =-0.4062-0.7188-0.2188 (   686 PWs)   bands (ev):

     9.7606  10.4455  10.9530  11.5328  12.3974  15.5614  19.6927  28.6170
    29.2900  37.5303

          k =-0.0938-0.9062 0.0938 (   689 PWs)   bands (ev):

     9.3059   9.7337  12.2193  12.3059  12.5390  15.6646  22.4513  25.6432
    28.0592  33.0228

          k =-0.1562-0.8438 0.0312 (   685 PWs)   bands (ev):

     9.3535   9.8081  11.9350  12.2983  12.4761  15.0272  23.7381  25.9370
    27.2342  34.2461

          k =-0.2188-0.7812-0.0312 (   684 PWs)   bands (ev):

     9.4725   9.9484  11.4697  12.1832  12.3794  14.6386  25.1706  25.4992
    26.8264  35.8605

          k =-0.2812-0.7188-0.0938 (   683 PWs)   bands (ev):

     9.6022  10.1413  11.0395  11.9041  12.3513  14.4036  23.5211  27.3330
    27.8299  36.7133

          k =-0.3438-0.6562-0.1562 (   685 PWs)   bands (ev):

     9.5829  10.4132  10.8612  11.6051  12.3290  14.2024  21.9650  28.7486
    29.8721  37.4096

          k =-0.0938-0.7812 0.0938 (   687 PWs)   bands (ev):

     9.2866   9.8515  11.9485  12.1633  12.4658  14.0014  25.1418  26.2402
    28.7206  33.2819

          k =-0.1562-0.7188 0.0312 (   686 PWs)   bands (ev):

     9.2577   9.9628  11.5713  12.1567  12.3114  13.4578  26.6140  26.9486
    28.0755  34.7096

          k =-0.2188-0.6562-0.0312 (   682 PWs)   bands (ev):

     9.2289  10.1234  11.1418  12.0023  12.1685  13.2787  26.1930  27.6598
    28.9605  36.5029

          k =-0.2812-0.5938-0.0938 (   685 PWs)   bands (ev):

     9.1397  10.3309  10.9221  11.6818  12.1572  13.1915  24.6128  28.7096
    31.1735  37.4483

          k =-0.0938-0.6562 0.0938 (   685 PWs)   bands (ev):

     9.0030  10.0470  11.5054  11.9399  12.3543  12.7219  27.1627  28.5834
    29.8606  33.7736

          k =-0.1562-0.5938 0.0312 (   686 PWs)   bands (ev):

     8.7149  10.1803  11.2344  11.8925  12.0934  12.5657  27.8508  29.1731
    30.5700  35.4673

          k =-0.2188-0.5312-0.0312 (   682 PWs)   bands (ev):

     8.4399  10.3404  11.0628  11.7392  11.9085  12.5777  27.4792  28.9736
    32.7234  37.4525

          k =-0.0938-0.5312 0.0938 (   682 PWs)   bands (ev):

     8.1644  10.2918  11.2548  11.6872  12.0672  12.2203  28.4934  31.4156
    32.2486  34.5907

          k =-0.1562-0.4688 0.0312 (   684 PWs)   bands (ev):

     7.6979  10.4283  11.2037  11.6170  11.7985  12.2316  29.3125  30.7147
    34.4146  36.5629

          k =-0.0938-0.4062 0.0938 (   680 PWs)   bands (ev):

     7.0774  10.5492  11.2881  11.4514  11.7263  12.0813  30.0966  33.3240
    35.0518  36.7358

          k =-0.1562 0.1562 0.1562 (   679 PWs)   bands (ev):

     5.8650  10.8908  11.1748  11.1748  11.8323  11.8323  31.7400  38.1945
    38.3785  38.3785

          k =-0.2188 0.2188 0.0938 (   676 PWs)   bands (ev):

     6.2238  10.8199  11.2104  11.2295  11.7356  11.9475  30.7159  34.7965
    39.3895  40.2696

          k =-0.2812 0.2812 0.0312 (   678 PWs)   bands (ev):

     6.8305  10.7110  11.2090  11.3521  11.6288  12.1315  29.8719  31.4087
    40.4453  41.3141

          k =-0.3438 0.3438-0.0312 (   679 PWs)   bands (ev):

     7.6320  10.6193  11.1385  11.4612  11.5936  12.4085  27.9560  29.5307
    39.3461  39.7084

          k =-0.4062 0.4062-0.0938 (   680 PWs)   bands (ev):

     8.4987  10.6224  11.0211  11.3880  11.7910  12.7970  24.9982  29.1785
    37.8012  37.9926

          k =-0.4688 0.4688-0.1562 (   682 PWs)   bands (ev):

     9.1587  10.8364  10.8919  11.3144  12.0221  13.3872  22.2647  29.1384
    36.1457  36.8907

          k = 0.4688-0.4688 0.7812 (   686 PWs)   bands (ev):

     9.4337  10.7817  11.1739  11.2720  12.2307  14.3165  19.9007  29.3801
    34.7720  36.0598

          k = 0.4062-0.4062 0.7188 (   688 PWs)   bands (ev):

     9.4912  10.7153  11.2663  11.3217  12.3829  15.1980  18.4305  29.9025
    33.7052  35.4939

          k = 0.3438-0.3438 0.6562 (   685 PWs)   bands (ev):

     9.4461  10.6967  11.2183  11.2954  12.4544  14.6049  19.2422  30.6968
    32.9652  35.1768

          k = 0.2812-0.2812 0.5938 (   684 PWs)   bands (ev):

     9.2458  10.6609  11.0113  11.3500  12.4368  13.4574  21.4066  31.7393
    32.5625  35.0919

          k = 0.2188-0.2188 0.5312 (   688 PWs)   bands (ev):

     8.7184  10.5148  11.0130  11.4133  12.3423  12.6134  24.0358  32.4964
    32.9725  35.2455

          k = 0.1562-0.1562 0.4688 (   681 PWs)   bands (ev):

     7.9062  10.4777  11.1404  11.4587  12.0747  12.2063  26.9547  32.7557
    34.2068  35.7531

          k =-0.1562 0.2812 0.1562 (   686 PWs)   bands (ev):

     6.4845  10.7788  11.2285  11.2453  11.7654  11.9619  29.6152  35.9375
    36.7330  40.8318

          k =-0.2188 0.3438 0.0938 (   680 PWs)   bands (ev):

     6.9928  10.6795  11.2121  11.3387  11.7241  12.1151  28.7321  32.8074
    37.9301  39.4476

          k =-0.2812 0.4062 0.0312 (   685 PWs)   bands (ev):

     7.7070  10.5721  11.1213  11.5051  11.6480  12.4035  28.0266  29.5850
    37.1042  40.1706

          k =-0.3438 0.4688-0.0312 (   682 PWs)   bands (ev):

     8.5292  10.5117  10.9805  11.5639  11.7257  12.8246  26.2481  27.8923
    35.4348  40.0686

          k =-0.4062 0.5312-0.0938 (   688 PWs)   bands (ev):

     9.2436  10.5854  10.8276  11.4879  11.9668  13.4560  23.4695  27.7085
    33.9290  38.8109

          k = 0.5312-0.4062 0.8438 (   685 PWs)   bands (ev):

     9.5994  10.6630  10.8734  11.4309  12.1825  14.4335  20.9363  27.8577
    32.6440  37.7978

          k = 0.4688-0.3438 0.7812 (   689 PWs)   bands (ev):

     9.6861  10.5755  11.0856  11.4025  12.3373  15.6357  18.9404  28.2959
    31.6085  37.0614

          k = 0.4062-0.2812 0.7188 (   687 PWs)   bands (ev):

     9.6631  10.5394  11.0874  11.4241  12.4164  15.5965  18.9384  29.0059
    30.8544  36.5953

          k = 0.3438-0.2188 0.6562 (   687 PWs)   bands (ev):

     9.5359  10.5136  10.9562  11.4810  12.4074  14.3072  20.9242  29.8903
    30.4867  36.3744

          k = 0.2812-0.1562 0.5938 (   687 PWs)   bands (ev):

     9.1715  10.4106  10.9387  11.5481  12.2977  13.2261  23.4578  30.1091
    31.3385  36.3624

          k = 0.2188-0.0938 0.5312 (   680 PWs)   bands (ev):

     8.4911  10.3673  11.0544  11.6071  12.0763  12.5643  26.2864  30.2674
    32.7800  36.5016

          k =-0.1562 0.4062 0.1562 (   684 PWs)   bands (ev):

     7.3895  10.5890  11.1950  11.3732  11.8926  12.1237  27.7710  33.7406
    35.2762  37.2791

          k =-0.2188 0.4688 0.0938 (   686 PWs)   bands (ev):

     7.9831  10.4780  11.1055  11.5029  11.9255  12.3668  27.0304  31.0504
    34.7296  37.1226

          k =-0.2812 0.5312 0.0312 (   682 PWs)   bands (ev):

     8.6925  10.3878  10.9592  11.7106  11.8650  12.8339  26.4602  28.0528
    33.0389  39.0212

          k =-0.3438 0.5938-0.0312 (   681 PWs)   bands (ev):

     9.3631  10.3683  10.7910  11.7590  11.9806  13.5409  24.8249  26.5668
    31.4735  40.0097

          k = 0.5938-0.3438 0.9062 (   686 PWs)   bands (ev):

     9.7828  10.4382  10.6905  11.6760  12.1939  14.6032  22.2398  26.5567
    30.1316  39.5065

          k = 0.5312-0.2812 0.8438 (   684 PWs)   bands (ev):

     9.9317  10.3848  10.8267  11.6062  12.3335  16.0070  19.9325  26.8976
    29.0378  39.0304

          k = 0.4688-0.2188 0.7812 (   687 PWs)   bands (ev):

     9.9450  10.3436  10.9014  11.5916  12.3874  16.8059  18.8987  27.4891
    28.2479  38.7030

          k = 0.4062-0.1562 0.7188 (   685 PWs)   bands (ev):

     9.8547  10.3723  10.8205  11.6503  12.3531  15.4756  20.6556  27.5448
    28.5469  38.5494

          k = 0.3438-0.0938 0.6562 (   683 PWs)   bands (ev):

     9.6207  10.3354  10.7946  11.7393  12.2227  14.1338  23.0987  27.3128
    29.6883  38.5437

          k = 0.2812-0.0312 0.5938 (   684 PWs)   bands (ev):

     9.1210  10.2919  10.9135  11.8303  12.0005  13.1801  25.7852  27.4000
    31.0961  38.5192

          k =-0.1562 0.5312 0.1562 (   684 PWs)   bands (ev):

     8.4195  10.3616  11.1030  11.5567  12.2847  12.3383  26.2098  31.8547
    32.5416  34.9528

          k =-0.2188 0.5938 0.0938 (   684 PWs)   bands (ev):

     8.9381  10.2563  11.0512  11.7224  12.2118  12.8734  25.6158  29.5444
    30.8767  36.0017

          k =-0.2812 0.6562 0.0312 (   682 PWs)   bands (ev):

     9.4284  10.2000  10.9363  11.9443  12.1321  13.6712  25.1867  26.8232
    29.2372  38.0845

          k = 0.6562-0.2812 0.9688 (   684 PWs)   bands (ev):

     9.7819  10.2245  10.8091  11.9375  12.2448  14.8171  23.7089  25.5588
    27.8320  39.3790

          k = 0.5938-0.2188 0.9062 (   687 PWs)   bands (ev):

     9.9784  10.2717  10.7481  11.8260  12.3790  16.3156  21.3290  25.7063
    26.6978  39.5861

          k = 0.5312-0.1562 0.8438 (   692 PWs)   bands (ev):

    10.1207  10.2262  10.7482  11.7511  12.4218  17.8969  19.3787  25.6545
    26.3936  39.8029

          k = 0.4688-0.0938 0.7812 (   689 PWs)   bands (ev):

    10.1078  10.2916  10.6681  11.7645  12.3716  16.9219  20.5450  25.0869
    27.1795  40.1601

          k = 0.4062-0.0312 0.7188 (   689 PWs)   bands (ev):

     9.9647  10.3473  10.6128  11.8402  12.2413  15.3512  22.7945  24.8652
    28.2683  40.6386

          k = 0.3438 0.0312 0.6562 (   684 PWs)   bands (ev):

     9.6417  10.2941  10.7594  11.8596  12.1153  14.1004  24.2262  26.0239
    29.6055  39.6984

          k =-0.1562 0.6562 0.1562 (   684 PWs)   bands (ev):

     9.2014  10.1332  11.2174  11.7776  12.4155  13.1921  24.9424  28.8689
    30.3301  34.1275

          k =-0.2188 0.7188 0.0938 (   684 PWs)   bands (ev):

     9.4397  10.0524  11.2672  11.9585  12.3898  13.9740  24.5068  27.1704
    28.4740  35.2688

          k = 0.7188-0.2188 1.0312 (   683 PWs)   bands (ev):

     9.6365  10.0450  11.1838  12.0906  12.3694  15.1359  24.2377  25.5872
    26.1536  37.4310

          k = 0.6562-0.1562 0.9688 (   689 PWs)   bands (ev):

     9.7885  10.1188  11.0467  12.0025  12.4639  16.6264  22.9417  24.4175
    25.0969  38.8930

          k = 0.5938-0.0938 0.9062 (   693 PWs)   bands (ev):

     9.9188  10.2334  10.8809  11.8808  12.5057  18.3640  20.7614  23.6433
    25.3507  39.4406

          k = 0.5312-0.0312 0.8438 (   691 PWs)   bands (ev):

    10.0361  10.3548  10.6769  11.8171  12.4607  18.6329  20.3063  23.2095
    26.0768  39.9823

          k = 0.4688 0.0312 0.7812 (   691 PWs)   bands (ev):

    10.0931  10.4079  10.5395  11.8100  12.3601  16.8844  21.4852  23.9303
    27.0899  40.5102

          k = 0.4062 0.0938 0.7188 (   684 PWs)   bands (ev):

     9.9281  10.3396  10.6992  11.7621  12.2928  15.3963  21.7425  26.1012
    28.3542  39.6125

          k =-0.1562 0.7812 0.1562 (   686 PWs)   bands (ev):

     9.4591   9.9450  11.5639  12.0009  12.4932  14.6229  23.9877  25.4846
    29.2211  33.6578

          k = 0.7812-0.1562 1.0938 (   687 PWs)   bands (ev):

     9.5159   9.9062  11.5921  12.1326  12.4887  15.6475  23.6421  24.1407
    27.6682  34.8314

          k = 0.7188-0.0938 1.0312 (   690 PWs)   bands (ev):

     9.6104   9.9510  11.4469  12.1159  12.5378  16.9512  22.8477  23.7253
    25.5037  37.0693

          k = 0.6562-0.0312 0.9688 (   693 PWs)   bands (ev):

     9.7374  10.0712  11.2090  11.9960  12.5756  18.3260  22.1580  22.6832
    24.7073  38.6780

          k = 0.5938 0.0312 0.9062 (   696 PWs)   bands (ev):

     9.8939  10.2292  10.9186  11.8855  12.5350  19.2139  20.5864  22.6838
    25.2490  39.4006

          k = 0.5312 0.0938 0.8438 (   693 PWs)   bands (ev):

    10.0700  10.3004  10.7067  11.7951  12.4473  18.5272  19.6221  24.2712
    26.1716  39.9367

          k = 0.4688 0.1562 0.7812 (   689 PWs)   bands (ev):

    10.0630  10.2665  10.7897  11.6865  12.3845  16.9465  19.5756  26.5131
    27.3831  39.5101

          k =-0.1562-1.0938 0.1562 (   690 PWs)   bands (ev):

     9.4670   9.8333  11.8325  12.1743  12.5117  16.3733  22.5971  23.5476
    28.5819  33.4168

          k =-0.2188-1.0312 0.0938 (   691 PWs)   bands (ev):

     9.4956   9.8413  11.7736  12.1914  12.5383  17.1559  21.8540  23.4840
    27.3190  34.6506

          k =-0.2812-0.9688 0.0312 (   691 PWs)   bands (ev):

     9.5960   9.9315  11.5127  12.1101  12.5755  17.6192  21.9967  23.6005
    25.3964  36.9972

          k =-0.3438-0.9062-0.0312 (   691 PWs)   bands (ev):

     9.7571  10.0872  11.1504  12.0019  12.5370  17.5897  22.6745  23.1970
    24.8157  38.7500

          k =-0.4062-0.8438-0.0938 (   690 PWs)   bands (ev):

     9.9578  10.2435  10.8172  11.8641  12.4515  17.3270  21.0030  24.9581
    25.6030  39.5109

          k =-0.1562-0.9688 0.1562 (   694 PWs)   bands (ev):

     9.4590   9.8107  11.8896  12.2181  12.5087  16.9929  21.8057  23.4080
    28.4518  33.3701

          k =-0.2188-0.9062 0.0938 (   690 PWs)   bands (ev):

     9.5053   9.8630  11.7095  12.1750  12.5205  16.5249  22.6604  23.6194
    27.4360  34.7104

          k =-0.2812-0.8438 0.0312 (   686 PWs)   bands (ev):

     9.6307   9.9892  11.3303  12.1143  12.4666  16.0436  23.8568  24.2350
    25.7248  37.2138

          k =-0.3438-0.7812-0.0312 (   687 PWs)   bands (ev):

     9.8110  10.1650  10.9209  11.9843  12.3636  15.6734  23.2792  25.1478
    26.1937  39.1048

          k =-0.1562-0.8438 0.1562 (   688 PWs)   bands (ev):

     9.4740   9.8783  11.7211  12.0980  12.5089  15.5045  23.5535  24.0866
    28.8398  33.5117

          k =-0.2188-0.7812 0.0938 (   684 PWs)   bands (ev):

     9.5066   9.9700  11.4369  12.0587  12.4459  14.7616  24.0714  25.5451
    28.0129  35.0162

          k =-0.2812-0.7188 0.0312 (   681 PWs)   bands (ev):

     9.5882  10.1163  11.0375  12.0346  12.2555  14.3284  24.6696  26.3088
    27.4917  37.7213

          k =-0.1562-0.7188 0.1562 (   685 PWs)   bands (ev):

     9.3854  10.0313  11.3818  11.8917  12.4620  13.8354  24.4260  27.1195
    29.7201  33.8603

          k =-0.2188-0.6562 0.0938 (   685 PWs)   bands (ev):

     9.2621  10.1495  11.1242  11.8426  12.3146  13.3385  25.0214  28.7369
    29.2072  35.5947

          k =-0.1562-0.5938 0.1562 (   680 PWs)   bands (ev):

     8.8720  10.2451  11.1200  11.6643  12.3555  12.7008  25.5381  30.6947
    31.0439  34.4763

          k =-0.2188 0.2188 0.2188 (   679 PWs)   bands (ev):

     6.6499  10.8156  11.2088  11.2088  11.8881  11.8881  28.4363  37.7249
    37.7249  37.7892

          k =-0.2812 0.2812 0.1562 (   679 PWs)   bands (ev):

     7.0634  10.7584  11.2008  11.2489  11.8007  12.0817  27.4825  34.2417
    38.7893  39.6833

          k =-0.3438 0.3438 0.0938 (   677 PWs)   bands (ev):

     7.6941  10.6539  11.1398  11.3591  11.7141  12.3862  26.7527  30.8902
    39.0370  39.7081

          k =-0.4062 0.4062 0.0312 (   681 PWs)   bands (ev):

     8.4684  10.5604  11.0132  11.4938  11.6726  12.8221  26.1760  27.8361
    37.7479  38.0947

          k =-0.4688 0.4688-0.0312 (   678 PWs)   bands (ev):

     9.2209  10.5510  10.8465  11.5058  11.8132  13.4463  24.5270  26.3456
    35.9280  36.9705

          k = 0.4688-0.4688 0.9062 (   688 PWs)   bands (ev):

     9.6764  10.6699  10.7294  11.4766  12.0338  14.3768  21.9536  26.3180
    34.3422  36.0175

          k = 0.4062-0.4062 0.8438 (   689 PWs)   bands (ev):

     9.7933  10.5324  10.9665  11.4706  12.2413  15.6377  19.6790  26.6499
    33.0284  35.2948

          k = 0.3438-0.3438 0.7812 (   690 PWs)   bands (ev):

     9.7656  10.4433  11.0644  11.4942  12.3956  16.2980  18.7163  27.2736
    32.0194  34.8023

          k = 0.2812-0.2812 0.7188 (   689 PWs)   bands (ev):

     9.6544  10.3780  11.0428  11.5430  12.4695  15.0247  20.3777  28.1694
    31.3427  34.5208

          k = 0.2188-0.2188 0.6562 (   690 PWs)   bands (ev):

     9.3947  10.2900  11.0373  11.6060  12.4521  13.6819  22.7998  29.3180
    31.0163  34.4236

          k =-0.2188 0.3438 0.2188 (   685 PWs)   bands (ev):

     7.3702  10.7499  11.1847  11.2376  11.9235  12.0806  26.4517  35.3979
    36.2950  39.2585

          k =-0.2812 0.4062 0.1562 (   682 PWs)   bands (ev):

     7.8889  10.6688  11.1180  11.3094  11.9139  12.3391  25.6491  32.4033
    36.9445  38.2944

          k =-0.3438 0.4688 0.0938 (   682 PWs)   bands (ev):

     8.5603  10.5670  10.9876  11.4466  11.8601  12.8021  25.0680  29.2333
    35.4841  39.3812

          k =-0.4062 0.5312 0.0312 (   684 PWs)   bands (ev):

     9.2649  10.4998  10.8088  11.5865  11.8604  13.4692  24.6021  26.4018
    33.8619  39.0005

          k = 0.5312-0.4062 0.9688 (   686 PWs)   bands (ev):

     9.7929  10.5446  10.6168  11.6185  12.0042  14.4314  23.0789  25.1333
    32.4120  37.9261

          k = 0.4688-0.3438 0.9062 (   688 PWs)   bands (ev):

     9.9759  10.4273  10.7678  11.6078  12.1969  15.7454  20.7307  25.2569
    31.1775  37.0026

          k = 0.4062-0.2812 0.8438 (   691 PWs)   bands (ev):

     9.9480  10.3170  10.9402  11.6243  12.3517  17.0515  18.9485  25.7668
    30.1896  36.3248

          k = 0.3438-0.2188 0.7812 (   692 PWs)   bands (ev):

     9.8243  10.2607  11.0022  11.6831  12.4354  16.0909  20.0579  26.5656
    29.4822  35.8892

          k = 0.2812-0.1562 0.7188 (   687 PWs)   bands (ev):

     9.6231  10.1948  11.0415  11.7635  12.4272  14.5508  22.3790  27.6178
    29.0926  35.6653

          k =-0.2188 0.4688 0.2188 (   689 PWs)   bands (ev):

     8.2710  10.6097  11.0685  11.3373  12.2646  12.2773  24.7668  33.3779
    34.5759  36.0841

          k =-0.2812 0.5312 0.1562 (   684 PWs)   bands (ev):

     8.7883  10.5117  10.9729  11.4516  12.1852  12.8039  24.1135  30.8136
    33.2307  36.8421

          k =-0.3438 0.5938 0.0938 (   683 PWs)   bands (ev):

     9.3519  10.4246  10.8154  11.6330  12.1102  13.5478  23.6791  27.8757
    31.5490  38.8505

          k = 0.5938-0.3438 1.0312 (   686 PWs)   bands (ev):

     9.8409  10.4019  10.6151  11.7695  12.1129  14.5781  23.3177  25.2962
    30.0511  40.1795

          k = 0.5312-0.2812 0.9688 (   689 PWs)   bands (ev):

    10.1079  10.3928  10.5372  11.7668  12.2437  15.9416  21.9305  24.2536
    28.7789  39.5798

          k = 0.4688-0.2188 0.9062 (   693 PWs)   bands (ev):

    10.1704  10.2033  10.7388  11.7484  12.3723  17.5617  19.8460  24.5259
    27.7500  38.8736

          k = 0.4062-0.1562 0.8438 (   693 PWs)   bands (ev):

     9.9977  10.2107  10.8598  11.7987  12.4301  17.4402  19.9568  25.1977
    26.9924  38.3620

          k = 0.3438-0.0938 0.7812 (   684 PWs)   bands (ev):

     9.8221  10.1720  10.9382  11.9096  12.3946  15.7534  22.1818  26.0694
    26.6168  38.0352

          k =-0.2188 0.5938 0.2188 (   686 PWs)   bands (ev):

     9.1067  10.4058  10.9966  11.5039  12.4058  13.0765  23.3795  31.1418
    31.7073  34.7662

          k =-0.2812 0.6562 0.1562 (   686 PWs)   bands (ev):

     9.4547  10.3012  10.9613  11.6546  12.3764  13.8105  22.8787  29.2440
    29.7501  35.9743

          k = 0.6562-0.2812 1.0938 (   682 PWs)   bands (ev):

     9.7718  10.2460  10.8417  11.8358  12.3165  14.8761  22.5984  26.8153
    27.9332  38.2663

          k = 0.5938-0.2188 1.0312 (   693 PWs)   bands (ev):

     9.9730  10.3041  10.6877  11.8829  12.3606  16.2540  22.3593  24.5081
    26.5912  40.7407

          k = 0.5312-0.1562 0.9688 (   694 PWs)   bands (ev):

    10.0225  10.4368  10.5786  11.8310  12.4609  17.9204  21.1377  23.6691
    25.5250  41.4503

          k = 0.4688-0.0938 0.9062 (   694 PWs)   bands (ev):

     9.9989  10.3838  10.6678  11.8238  12.5045  19.0047  20.0305  24.0250
    24.7997  41.0478

          k = 0.4062-0.0312 0.8438 (   692 PWs)   bands (ev):

     9.9296  10.2728  10.7896  11.9000  12.4620  17.2516  22.0197  24.1792
    25.0897  40.6324

          k =-0.2188 0.7188 0.2188 (   689 PWs)   bands (ev):

     9.5690  10.1786  11.1316  11.7150  12.4795  14.4309  22.2992  27.5615
    30.4290  34.1646

          k = 0.7188-0.2188 1.1562 (   690 PWs)   bands (ev):

     9.6974  10.1041  11.1551  11.8658  12.4561  15.4226  21.9617  25.9680
    28.6553  35.4271

          k = 0.6562-0.1562 1.0938 (   691 PWs)   bands (ev):

     9.8143  10.1210  11.0475  11.9547  12.4596  16.7244  21.8509  24.6180
    26.2309  37.8583

          k = 0.5938-0.0938 1.0312 (   695 PWs)   bands (ev):

     9.8843  10.2512  10.8765  11.9006  12.5363  18.2722  21.7800  23.4328
    24.2739  40.5199

          k = 0.5312-0.0312 0.9688 (   693 PWs)   bands (ev):

     9.9295  10.4385  10.6684  11.8369  12.5757  19.8972  20.7604  22.7535
    23.7004  42.2797

          k = 0.4688 0.0312 0.9062 (   693 PWs)   bands (ev):

     9.9621  10.4404  10.6339  11.8370  12.5357  18.9926  20.8959  23.3816
    24.2221  42.1390

          k =-0.2188-1.1562 0.2188 (   690 PWs)   bands (ev):

     9.6747  10.0118  11.3687  11.9290  12.4780  16.2633  21.5425  24.3849
    29.5870  33.8318

          k =-0.2812-1.0938 0.1562 (   693 PWs)   bands (ev):

     9.7058   9.9964  11.3607  12.0136  12.4724  17.3451  21.3580  23.1551
    28.1101  35.1408

          k =-0.3438-1.0312 0.0938 (   692 PWs)   bands (ev):

     9.7713  10.0758  11.1904  11.9796  12.5352  18.4681  21.3887  22.4515
    25.9201  37.6793

          k =-0.4062-0.9688 0.0312 (   693 PWs)   bands (ev):

     9.8581  10.2401  10.9256  11.8966  12.5757  19.0888  21.6342  22.5287
    24.1166  40.4574

          k =-0.2188-1.0312 0.2188 (   688 PWs)   bands (ev):

     9.6656   9.9457  11.5034  12.0686  12.4380  17.9408  21.0399  22.3153
    29.2184  33.6984

          k =-0.2812-0.9688 0.1562 (   692 PWs)   bands (ev):

     9.6960   9.9772  11.4107  12.0454  12.4723  18.0756  21.1327  22.3519
    28.0000  35.0850

          k =-0.3438-0.9062 0.0938 (   692 PWs)   bands (ev):

     9.7891  10.0903  11.1387  11.9745  12.5085  17.7070  21.5959  23.3019
    26.0221  37.7391

          k =-0.2188-0.9062 0.2188 (   693 PWs)   bands (ev):

     9.6724   9.9669  11.4565  12.0158  12.4571  17.2198  21.2695  23.1045
    29.3418  33.7423

          k =-0.2812-0.8438 0.1562 (   692 PWs)   bands (ev):

     9.7140  10.0376  11.2699  11.9519  12.4691  16.3827  21.6262  24.4462
    28.3291  35.2538

          k =-0.2188-0.7812 0.2188 (   688 PWs)   bands (ev):

     9.6505  10.0832  11.2528  11.8251  12.4875  15.3050  21.8805  25.9032
    29.9508  33.9706

          k =-0.2812 0.2812 0.2812 (   682 PWs)   bands (ev):

     7.5728  10.8543  11.1763  11.1763  12.0250  12.0250  25.3515  37.2527
    37.2527  37.2821

          k =-0.3438 0.3438 0.2188 (   678 PWs)   bands (ev):

     7.9827  10.8443  11.1386  11.1943  11.9667  12.2856  24.4802  33.9158
    37.9731  38.9295

          k =-0.4062 0.4062 0.1562 (   686 PWs)   bands (ev):

     8.5545  10.7526  11.0345  11.2836  11.9199  12.7466  23.8363  30.6671
    37.7970  37.8901

          k =-0.4688 0.4688 0.0938 (   682 PWs)   bands (ev):

     9.1974  10.6485  10.8628  11.4191  11.9059  13.4271  23.3995  27.6497
    36.0019  36.9437

          k = 0.4688-0.4688 1.0312 (   684 PWs)   bands (ev):

     9.7571  10.6016  10.6506  11.5515  11.9603  14.3821  22.9986  25.0786
    34.2551  36.0102

          k = 0.4062-0.4062 0.9688 (   686 PWs)   bands (ev):

    10.0251  10.4360  10.7182  11.6375  12.1019  15.6671  21.5813  24.0464
    32.7358  35.2181

          k = 0.3438-0.3438 0.9062 (   689 PWs)   bands (ev):

     9.9971  10.2724  10.9371  11.6972  12.2771  17.1967  19.5371  24.2890
    31.4871  34.6185

          k = 0.2812-0.2812 0.8438 (   695 PWs)   bands (ev):

     9.8455  10.1683  11.1145  11.7579  12.4198  16.9978  19.6825  24.9492
    30.5474  34.2100

          k =-0.2812 0.4062 0.2812 (   679 PWs)   bands (ev):

     8.2614  10.9201  11.0991  11.1830  12.1881  12.2327  23.5385  35.1168
    35.9205  37.8084

          k =-0.3438 0.4688 0.2188 (   686 PWs)   bands (ev):

     8.6917  10.8621  11.0153  11.2454  12.1459  12.6938  22.8246  32.2561
    35.6905  37.6256

          k =-0.4062 0.5312 0.1562 (   685 PWs)   bands (ev):

     9.2081  10.7422  10.8689  11.3762  12.0936  13.4299  22.3320  29.1938
    34.0626  38.4250

          k = 0.5312-0.4062 1.0938 (   686 PWs)   bands (ev):

     9.7142  10.6033  10.6986  11.5379  12.0819  14.4339  22.0251  26.3789
    32.4892  37.8875

          k = 0.4688-0.3438 1.0312 (   690 PWs)   bands (ev):

    10.0717  10.3992  10.6623  11.6745  12.1433  15.7378  21.6691  24.0980
    31.0917  36.9876

          k = 0.4062-0.2812 0.9688 (   690 PWs)   bands (ev):

    10.1091  10.2136  10.8386  11.7665  12.2709  17.3342  20.3710  23.2927
    29.9075  36.2091

          k = 0.3438-0.2188 0.9062 (   693 PWs)   bands (ev):

     9.9149  10.1279  11.0711  11.8520  12.3989  18.1344  19.5370  23.6488
    28.9732  35.6336

          k =-0.2812 0.5312 0.2812 (   688 PWs)   bands (ev):

     8.9556  10.7962  11.0163  11.2750  12.3875  12.8813  22.0396  33.3216
    33.5382  35.5582

          k =-0.3438 0.5938 0.2188 (   687 PWs)   bands (ev):

     9.3065  10.6562  10.9538  11.3877  12.3530  13.6074  21.4797  30.8373
    31.9554  36.7137

          k = 0.5938-0.3438 1.1562 (   687 PWs)   bands (ev):

     9.6924  10.5033  10.8186  11.5563  12.2879  14.6495  21.1350  28.0278
    30.2968  38.6070

          k = 0.5312-0.2812 1.0938 (   686 PWs)   bands (ev):

    10.0479  10.3496  10.6765  11.7036  12.2828  15.9715  20.9548  25.4380
    28.8639  39.4061

          k = 0.4688-0.2188 1.0312 (   688 PWs)   bands (ev):

    10.1337  10.2830  10.6786  11.7879  12.3625  17.5721  20.6621  23.4367
    27.6600  38.8888

          k = 0.4062-0.1562 0.9688 (   691 PWs)   bands (ev):

     9.9619  10.2097  10.9032  11.8615  12.4618  19.2778  19.6468  22.8301
    26.7009  38.2533

          k =-0.2812 0.6562 0.2812 (   688 PWs)   bands (ev):

     9.4795  10.5159  11.0203  11.4407  12.4643  14.1774  20.8519  29.9262
    31.9015  34.7653

          k = 0.6562-0.2812 1.2188 (   687 PWs)   bands (ev):

     9.7076  10.3774  10.9729  11.5817  12.4330  15.1441  20.4491  28.2280
    29.8928  36.1011

          k = 0.5938-0.2188 1.1562 (   686 PWs)   bands (ev):

     9.9597  10.2669  10.8351  11.7337  12.3987  16.4177  20.2610  26.7023
    27.3357  38.4553

          k = 0.5312-0.1562 1.0938 (   690 PWs)   bands (ev):

    10.0581  10.3346  10.6650  11.8036  12.4475  17.9569  20.2303  24.7801
    25.6430  40.7475

          k = 0.4688-0.0938 1.0312 (   694 PWs)   bands (ev):

     9.9659  10.4089  10.6723  11.8315  12.5353  19.7058  20.0976  23.0207
    24.6599  41.1429

          k =-0.2812-1.2188 0.2812 (   691 PWs)   bands (ev):

     9.7740  10.2588  11.0764  11.6514  12.4534  15.9764  19.9869  26.4993
    30.8902  34.3391

          k =-0.3438-1.1562 0.2188 (   692 PWs)   bands (ev):

     9.8907  10.1751  11.0382  11.7767  12.4209  17.1114  19.7542  25.0133
    29.1771  35.7345

          k =-0.4062-1.0938 0.1562 (   693 PWs)   bands (ev):

     9.9821  10.2041  10.8862  11.8412  12.4509  18.4704  19.7497  23.8162
    26.7968  38.2910

          k =-0.2812-1.0938 0.2812 (   695 PWs)   bands (ev):

     9.8782  10.1129  11.1476  11.8506  12.3776  18.0194  19.4611  23.5928
    30.3172  34.1272

          k =-0.3438-1.0312 0.2188 (   695 PWs)   bands (ev):

     9.9165  10.1116  11.0907  11.8956  12.3819  18.9666  19.3717  22.7021
    28.8709  35.5837

          k =-0.2812-0.9688 0.2812 (   692 PWs)   bands (ev):

     9.8867  10.0898  11.1668  11.9092  12.3448  18.8573  19.2778  22.6596
    30.2016  34.0868

          k =-0.3438 0.3438 0.3438 (   685 PWs)   bands (ev):

     8.4123  11.1096  11.1096  11.2112  12.1953  12.1953  22.5404  36.7809
    36.9591  36.9591

          k =-0.4062 0.4062 0.2812 (   681 PWs)   bands (ev):

     8.7110  11.0579  11.1224  11.2580  12.1603  12.5693  21.7707  33.8293
    37.2051  37.8765

          k =-0.4688 0.4688 0.2188 (   681 PWs)   bands (ev):

     9.1155  10.9276  11.1052  11.2161  12.1364  13.3238  21.2206  30.7136
    36.3491  36.8141

          k = 0.4688-0.4688 1.1562 (   688 PWs)   bands (ev):

     9.5580  10.7200  10.9268  11.3747  12.1329  14.3597  20.8709  27.7966
    34.5153  36.0332

          k = 0.4062-0.4062 1.0938 (   685 PWs)   bands (ev):

     9.9319  10.4690  10.8168  11.5697  12.1605  15.6667  20.6561  25.1959
    32.8335  35.2431

          k = 0.3438-0.3438 1.0312 (   687 PWs)   bands (ev):

    10.0521  10.2372  10.9029  11.7602  12.2316  17.2505  20.2730  23.2452
    31.3801  34.5837

          k =-0.3438 0.4688 0.3438 (   681 PWs)   bands (ev):

     8.8633  11.0167  11.1173  11.4262  12.3648  12.6047  20.9502  35.1090
    35.5550  36.7086

          k =-0.4062 0.5312 0.2812 (   686 PWs)   bands (ev):

     9.1324  10.9136  11.1711  11.3152  12.3234  13.3500  20.3517  32.3714
    34.5256  37.2269

          k = 0.5312-0.4062 1.2188 (   687 PWs)   bands (ev):

     9.4790  10.7304  11.0939  11.3267  12.2780  14.4178  19.9586  29.4371
    32.8776  37.6352

          k = 0.4688-0.3438 1.1562 (   691 PWs)   bands (ev):

     9.8365  10.4889  10.9186  11.5089  12.2696  15.7336  19.7416  26.7140
    31.3494  37.0295

          k = 0.4062-0.2812 1.0938 (   692 PWs)   bands (ev):

    10.0519  10.2470  10.8774  11.7118  12.3049  17.2918  19.6144  24.3484
    30.0016  36.2476

          k =-0.3438 0.5938 0.3438 (   684 PWs)   bands (ev):

     9.2656  10.8240  11.2162  11.2998  12.4489  13.8174  19.7156  32.4867
    33.5869  35.4671

          k = 0.5938-0.3438 1.2812 (   686 PWs)   bands (ev):

     9.4983  10.6718  11.1586  11.3351  12.4162  14.7551  19.2979  30.6803
    31.3961  36.7844

          k = 0.5312-0.2812 1.2188 (   685 PWs)   bands (ev):

     9.7973  10.4662  10.9766  11.4981  12.3741  15.9834  19.0886  28.4403
    29.3317  38.4651

          k = 0.4688-0.2188 1.1562 (   690 PWs)   bands (ev):

    10.0827  10.2427  10.8198  11.6789  12.3839  17.3880  19.1111  25.9548
    27.9339  38.8243

          k =-0.3438-1.2812 0.3438 (   688 PWs)   bands (ev):

     9.6135  10.5651  11.1396  11.3898  12.4359  15.4582  18.8882  28.9480
    32.4417  34.9613

          k =-0.4062-1.2188 0.2812 (   691 PWs)   bands (ev):

     9.8148  10.4174  11.0128  11.5240  12.3926  16.4294  18.7625  27.3395
    30.4722  36.4409

          k =-0.3438-1.1562 0.3438 (   689 PWs)   bands (ev):

     9.8969  10.3429  10.9947  11.6008  12.3391  16.9340  18.8940  25.7017
    31.7006  34.6901

          k =-0.4062 0.4062 0.4062 (   679 PWs)   bands (ev):

     8.8920  11.0469  11.0469  12.0763  12.3422  12.3422  20.1095  36.3901
    36.8184  36.8184

          k =-0.4688 0.4688 0.3438 (   688 PWs)   bands (ev):

     9.0511  10.9924  11.0691  11.8309  12.3243  13.1199  19.5005  33.9940
    36.6130  36.8137

          k = 0.4688-0.4688 1.2812 (   682 PWs)   bands (ev):

     9.3185  10.8475  11.1799  11.4518  12.3155  14.2224  19.1006  31.0355
    35.1071  36.1010

          k = 0.4062-0.4062 1.2188 (   687 PWs)   bands (ev):

     9.6416  10.6182  11.1382  11.3653  12.3194  15.5126  18.8925  28.2329
    33.3196  35.3766

          k =-0.4062 0.5312 0.4062 (   690 PWs)   bands (ev):

     9.0988  10.9673  11.0677  11.9022  12.4354  13.3561  18.9101  35.0093
    35.3886  36.2175

          k = 0.5312-0.4062 1.3438 (   683 PWs)   bands (ev):

     9.2717  10.8665  11.1424  11.6099  12.4084  14.2438  18.5606  32.7153
    33.6349  37.0267

          k = 0.4688-0.3438 1.2812 (   686 PWs)   bands (ev):

     9.5384  10.6752  11.2598  11.3014  12.3875  15.3531  18.4653  29.9560
    31.9606  37.0853

          k =-0.4062-1.3438 0.4062 (   683 PWs)   bands (ev):

     9.3489  10.8120  11.1809  11.5132  12.4254  14.6717  18.3331  31.6324
    34.1825  35.6543

          k =-0.4688 0.4688 0.4688 (   700 PWs)   bands (ev):

     9.0525  11.0105  11.0105  12.4259  12.4259  13.0610  18.4185  36.1786
    36.7776  36.7776

          k = 0.4688-0.4688 1.4062 (   687 PWs)   bands (ev):

     9.1415  10.9591  11.0497  12.0355  12.4223  13.7628  18.2169  34.4075
    35.9617  36.2596

     the Fermi energy is    14.2438 ev

!    total energy              =     -87.63917288 Ry
     Harris-Foulkes estimate   =     -87.63917288 Ry
     estimated scf accuracy    <          2.0E-14 Ry

     The total energy is the sum of the following terms:

     one-electron contribution =     -11.44308035 Ry
     hartree contribution      =      19.54973501 Ry
     xc contribution           =     -14.42415602 Ry
     ewald contribution        =     -81.32167152 Ry
     smearing contrib. (-TS)   =       0.00000000 Ry

     convergence has been achieved in  10 iterations

     Forces acting on atoms (Ry/au):

     atom    1 type  1   force =     0.00000000    0.00000000    0.00000000

     Total force =     0.000000     Total SCF correction =     0.000000


     entering subroutine stress ...

          total   stress  (Ry/bohr**3)                   (kbar)     P=       77.54
   0.00052712   0.00000000   0.00000000         77.54      0.00      0.00
   0.00000000   0.00052712  -0.00000000          0.00     77.54     -0.00
   0.00000000  -0.00000000   0.00052712          0.00     -0.00     77.54


     Writing output data file Cu.save
 
     init_run     :      1.92s CPU      1.98s WALL (       1 calls)
     electrons    :     51.71s CPU     53.03s WALL (       1 calls)
     forces       :      0.20s CPU      0.20s WALL (       1 calls)
     stress       :      0.98s CPU      0.99s WALL (       1 calls)

     Called by init_run:
     wfcinit      :      1.62s CPU      1.66s WALL (       1 calls)
     potinit      :      0.02s CPU      0.03s WALL (       1 calls)

     Called by electrons:
     c_bands      :     42.26s CPU     43.40s WALL (      10 calls)
     sum_band     :      8.98s CPU      9.16s WALL (      10 calls)
     v_of_rho     :      0.22s CPU      0.23s WALL (      11 calls)
     newd         :      0.22s CPU      0.22s WALL (      11 calls)
     mix_rho      :      0.02s CPU      0.02s WALL (      10 calls)

     Called by c_bands:
     init_us_2    :      1.08s CPU      1.13s WALL (    9384 calls)
     cegterg      :     39.54s CPU     39.96s WALL (    4080 calls)

     Called by *egterg:
     h_psi        :     34.21s CPU     34.58s WALL (   11444 calls)
     s_psi        :      0.70s CPU      0.67s WALL (   11444 calls)
     g_psi        :      0.38s CPU      0.40s WALL (    6956 calls)
     cdiaghg      :      2.04s CPU      2.03s WALL (   11036 calls)

     Called by h_psi:
     add_vuspsi   :      0.67s CPU      0.67s WALL (   11444 calls)

     General routines
     calbec       :      1.27s CPU      1.31s WALL (   16340 calls)
     fft          :      0.12s CPU      0.12s WALL (     180 calls)
     ffts         :      0.00s CPU      0.00s WALL (      21 calls)
     fftw         :     31.17s CPU     31.49s WALL (  238796 calls)
     interpolate  :      0.02s CPU      0.02s WALL (      21 calls)
     davcio       :      0.42s CPU      0.95s WALL (   13464 calls)
 
     Parallel routines
     fft_scatter  :      3.08s CPU      3.12s WALL (  238997 calls)
     EXX routines
 
     PWSCF        :    55.34s CPU        56.80s WALL

 
   This run was terminated on:  13: 9:10  30Oct2013            

=------------------------------------------------------------------------------=
   JOB DONE.
=------------------------------------------------------------------------------=
