
     Program PWSCF v.5.0        starts on 30Oct2013 at 13: 9:10 

     This program is part of the open-source Quantum ESPRESSO suite
     for quantum simulation of materials; please cite
         "P. Giannozzi et al., J. Phys.:Condens. Matter 21 395502 (2009);
          URL http://www.quantum-espresso.org", 
     in publications or presentations arising from this work. More details at
     http://www.quantum-espresso.org/quote.php

     Parallel version (MPI), running on     1 processors

     Current dimensions of program PWSCF are:
     Max number of different atomic species (ntypx) = 10
     Max number of k-points (npk) =  40000
     Max angular momentum in pseudopotentials (lmaxx) =  3
     Waiting for input...
     Reading input from standard input

     Atomic positions and unit cell read from directory:
     ./raw/Cu.save/
 

     Subspace diagonalization in iterative solution of the eigenvalue problem:
     a serial algorithm will be used

 kpoint style unhandled: 
 none                                                                           
  
 
     G-vector sticks info
     --------------------
     sticks:   dense  smooth     PW     G-vecs:    dense   smooth      PW
     Sum         823     421    139                15593     5577    1067
 


     bravais-lattice index     =            2
     lattice parameter (alat)  =       6.8219  a.u.
     unit-cell volume          =      79.3699 (a.u.)^3
     number of atoms/cell      =            1
     number of atomic types    =            1
     number of electrons       =        11.00
     number of Kohn-Sham states=           10
     kinetic-energy cutoff     =      64.0000  Ry
     charge density cutoff     =     512.0000  Ry
     Exchange-correlation      =  SLA  PW   PBE  PBE ( 1 4 3 4 0)
     EXX-fraction              =        0.00

     celldm(1)=   6.821900  celldm(2)=   0.000000  celldm(3)=   0.000000
     celldm(4)=   0.000000  celldm(5)=   0.000000  celldm(6)=   0.000000

     crystal axes: (cart. coord. in units of alat)
               a(1) = (  -0.500000   0.000000   0.500000 )  
               a(2) = (   0.000000   0.500000   0.500000 )  
               a(3) = (  -0.500000   0.500000   0.000000 )  

     reciprocal axes: (cart. coord. in units 2 pi/alat)
               b(1) = ( -1.000000 -1.000000  1.000000 )  
               b(2) = (  1.000000  1.000000  1.000000 )  
               b(3) = ( -1.000000  1.000000 -1.000000 )  


     PseudoPot. # 1 for Cu read from file:
     ../pseudo/Cu.pbe-d-rrkjus.UPF
     MD5 check sum: 855c9c66b119533e70b4be5d3ca221fe
     Pseudo is Ultrasoft, Zval = 11.0
     Generated by new atomic code, or converted to UPF format
     Using radial grid of  899 points,  3 beta functions with: 
                l(1) =   2
                l(2) =   2
                l(3) =   1
     Q(r) pseudized with 0 coefficients 


     atomic species   valence    mass     pseudopotential
        Cu            11.00    63.54600     Cu( 1.00)

     No symmetry found



   Cartesian axes

     site n.     atom                  positions (alat units)
         1           Cu  tau(   1) = (   0.0000000   0.0000000   0.0000000  )

     number of k points=    15  gaussian smearing, width (Ry)=  0.0000
                       cart. coord. in units 2pi/alat
        k(    1) = (   0.0000000   0.0000000   0.0000000), wk =   0.1333333
        k(    2) = (   0.5000000   0.0000000   0.0000000), wk =   0.1333333
        k(    3) = (   1.0000000   0.0000000   0.0000000), wk =   0.1333333
        k(    4) = (   1.0000000   0.2500000   0.0000000), wk =   0.1333333
        k(    5) = (   1.0000000   0.5000000   0.0000000), wk =   0.1333333
        k(    6) = (   0.7500000   0.5000000   0.2500000), wk =   0.1333333
        k(    7) = (   0.5000000   0.5000000   0.5000000), wk =   0.1333333
        k(    8) = (   0.2500000   0.2500000   0.2500000), wk =   0.1333333
        k(    9) = (   0.0000000   0.0000000   0.0000000), wk =   0.1333333
        k(   10) = (   0.5000000   0.5000000   0.0000000), wk =   0.1333333
        k(   11) = (   1.0000000   1.0000000   0.0000000), wk =   0.1333333
        k(   12) = (   0.8750000   0.8750000   0.0000000), wk =   0.1333333
        k(   13) = (   0.7500000   0.7500000   0.0000000), wk =   0.1333333
        k(   14) = (   0.6250000   0.6250000   0.2500000), wk =   0.1333333
        k(   15) = (   0.5000000   0.5000000   0.5000000), wk =   0.1333333

     Dense  grid:    15593 G-vectors     FFT dimensions: (  36,  36,  36)

     Smooth grid:     5577 G-vectors     FFT dimensions: (  25,  25,  25)

     Largest allocated arrays     est. size (Mb)     dimensions
        Kohn-Sham Wavefunctions         0.11 Mb     (    701,   10)
        NL pseudopotentials             0.14 Mb     (    701,   13)
        Each V/rho on FFT grid          0.71 Mb     (  46656)
        Each G-vector array             0.12 Mb     (  15593)
        G-vector shells                 0.00 Mb     (    204)
     Largest temporary arrays     est. size (Mb)     dimensions
        Auxiliary wavefunctions         0.43 Mb     (    701,   40)
        Each subspace H/S matrix        0.02 Mb     (  40,  40)
        Each <psi_i|beta_j> matrix      0.00 Mb     (     13,   10)

     The potential is recalculated from file :
     ./raw/Cu.save/charge-density.dat

     Starting wfc are    6 randomized atomic wfcs

     total cpu time spent up to now is        0.8 secs

     per-process dynamical memory:    17.3 Mb

     Band Structure Calculation
     Davidson diagonalization with overlap

     ethr =  9.09E-15,  avg # of iterations = 19.5

     total cpu time spent up to now is        1.7 secs

     End of band structure calculation

          k = 0.0000 0.0000 0.0000     band energies (ev):

     4.9920  11.0453  11.0453  11.0453  11.8595  11.8595  37.9643  40.0659
    40.0659  40.0659

          k = 0.5000 0.0000 0.0000     band energies (ev):

     7.7282  10.3287  11.4368  11.7133  11.7133  12.1329  31.6144  31.6144
    32.9243  33.6598

          k = 1.0000 0.0000 0.0000     band energies (ev):

     9.2024   9.6458  12.4110  12.5854  12.5854  15.7921  21.5033  27.6033
    27.6033  32.0409

          k = 1.0000 0.2500 0.0000     band energies (ev):

     9.5192   9.8676  11.6834  12.1676  12.5858  17.3668  21.7910  24.3734
    25.4356  36.3686

          k = 1.0000 0.5000 0.0000     band energies (ev):

     9.9301  10.5535  10.5535  11.8291  12.5862  20.4879  20.4879  22.5400
    23.4691  43.5596

          k = 0.7500 0.5000 0.2500     band energies (ev):

     9.8079  10.4575  11.0046  11.4884  12.3846  16.3220  18.6621  28.6057
    29.0970  38.4465

          k = 0.5000 0.5000 0.5000     band energies (ev):

     9.0684  11.0057  11.0057  12.4369  12.4369  13.2455  18.1498  36.1514
    36.7746  36.7746

          k = 0.2500 0.2500 0.2500     band energies (ev):

     7.1039  10.8112  11.1996  11.1996  11.9485  11.9485  26.8634  37.4658
    37.4658  37.5424

          k = 0.0000 0.0000 0.0000     band energies (ev):

     4.9920  11.0453  11.0453  11.0453  11.8595  11.8595  37.9643  40.0659
    40.0659  40.0659

          k = 0.5000 0.5000 0.0000     band energies (ev):

     9.5298  10.5538  10.7484  11.5368  11.8735  13.8719  24.0168  25.3918
    35.0626  36.4700

          k = 1.0000 1.0000 0.0000     band energies (ev):

     9.2024   9.6458  12.4110  12.5854  12.5854  15.7921  21.5033  27.6033
    27.6033  32.0409

          k = 0.8750 0.8750 0.0000     band energies (ev):

     9.3708   9.7518  12.0942  12.2871  12.5357  16.6711  21.6345  24.4475
    28.1401  33.1894

          k = 0.7500 0.7500 0.0000     band energies (ev):

     9.7763  10.0159  11.3316  11.9966  12.3901  18.5981  20.0377  22.3183
    29.6694  33.8760

          k = 0.6250 0.6250 0.2500     band energies (ev):

     9.6378  10.5865  11.1636  11.3736  12.3879  15.7739  18.5087  28.5564
    32.8394  35.1401

          k = 0.5000 0.5000 0.5000     band energies (ev):

     9.0684  11.0057  11.0057  12.4369  12.4369  13.2455  18.1498  36.1514
    36.7746  36.7746

     the Fermi energy is    15.7739 ev

     Writing output data file Cu.save
 
     init_run     :      0.28s CPU      0.29s WALL (       1 calls)
     electrons    :      0.89s CPU      0.90s WALL (       1 calls)

     Called by init_run:
     wfcinit      :      0.00s CPU      0.00s WALL (       1 calls)
     potinit      :      0.02s CPU      0.02s WALL (       1 calls)

     Called by electrons:
     c_bands      :      0.89s CPU      0.90s WALL (       1 calls)
     v_of_rho     :      0.02s CPU      0.02s WALL (       1 calls)
     newd         :      0.02s CPU      0.02s WALL (       1 calls)

     Called by c_bands:
     init_us_2    :      0.00s CPU      0.00s WALL (      15 calls)
     cegterg      :      0.83s CPU      0.83s WALL (      19 calls)

     Called by *egterg:
     h_psi        :      0.66s CPU      0.67s WALL (     327 calls)
     s_psi        :      0.01s CPU      0.01s WALL (     327 calls)
     g_psi        :      0.01s CPU      0.01s WALL (     293 calls)
     cdiaghg      :      0.07s CPU      0.07s WALL (     308 calls)

     Called by h_psi:
     add_vuspsi   :      0.01s CPU      0.01s WALL (     327 calls)

     General routines
     calbec       :      0.01s CPU      0.02s WALL (     327 calls)
     fft          :      0.01s CPU      0.01s WALL (      12 calls)
     ffts         :      0.00s CPU      0.00s WALL (       1 calls)
     fftw         :      0.53s CPU      0.52s WALL (    4032 calls)
     interpolate  :      0.00s CPU      0.00s WALL (       1 calls)
     davcio       :      0.00s CPU      0.00s WALL (      15 calls)
 
     Parallel routines
     fft_scatter  :      0.06s CPU      0.05s WALL (    4045 calls)
     EXX routines
 
     PWSCF        :     1.70s CPU         1.73s WALL

 
   This run was terminated on:  13: 9:11  30Oct2013            

=------------------------------------------------------------------------------=
   JOB DONE.
=------------------------------------------------------------------------------=
