
     Program PWSCF v.5.0        starts on 29Oct2013 at 14: 9:43 

     This program is part of the open-source Quantum ESPRESSO suite
     for quantum simulation of materials; please cite
         "P. Giannozzi et al., J. Phys.:Condens. Matter 21 395502 (2009);
          URL http://www.quantum-espresso.org", 
     in publications or presentations arising from this work. More details at
     http://www.quantum-espresso.org/quote.php

     Parallel version (MPI), running on     4 processors
     R & G space division:  proc/pool =    4

     Current dimensions of program PWSCF are:
     Max number of different atomic species (ntypx) = 10
     Max number of k-points (npk) =  40000
     Max angular momentum in pseudopotentials (lmaxx) =  3
     Waiting for input...
     Reading input from standard input
 kpoint style unhandled: 
 none                                                                           
  
 kpoint style unhandled: 
 none                                                                           
  
 kpoint style unhandled: 
 none                                                                           
  
               file C.pbe-rrkjus.UPF: wavefunction(s)  2S 2P renormalized

     Subspace diagonalization in iterative solution of the eigenvalue problem:
     a serial algorithm will be used

 kpoint style unhandled: 
 none                                                                           
  
 
     Parallelization info
     --------------------
     sticks:   dense  smooth     PW     G-vecs:    dense   smooth      PW
     Min         188      94     30                34029    12030    2310
     Max         190      95     31                34054    12067    2349
     Sum         757     379    121               136167    48207    9289
 


     bravais-lattice index     =            4
     lattice parameter (alat)  =       4.6490  a.u.
     unit-cell volume          =     696.1443 (a.u.)^3
     number of atoms/cell      =            2
     number of atomic types    =            1
     number of electrons       =         8.00
     number of Kohn-Sham states=            8
     kinetic-energy cutoff     =      64.0000  Ry
     charge density cutoff     =     512.0000  Ry
     convergence threshold     =      1.0E-12
     mixing beta               =       0.3000
     number of iterations used =            8  plain     mixing
     Exchange-correlation      =  SLA  PW   PBE  PBE ( 1 4 3 4 0)
     EXX-fraction              =        0.00

     celldm(1)=   4.649000  celldm(2)=   0.000000  celldm(3)=   8.000000
     celldm(4)=   0.000000  celldm(5)=   0.000000  celldm(6)=   0.000000

     crystal axes: (cart. coord. in units of alat)
               a(1) = (   1.000000   0.000000   0.000000 )  
               a(2) = (  -0.500000   0.866025   0.000000 )  
               a(3) = (   0.000000   0.000000   8.000000 )  

     reciprocal axes: (cart. coord. in units 2 pi/alat)
               b(1) = (  1.000000  0.577350  0.000000 )  
               b(2) = (  0.000000  1.154701  0.000000 )  
               b(3) = (  0.000000  0.000000  0.125000 )  


     PseudoPot. # 1 for C  read from file:
     ../pseudo/C.pbe-rrkjus.UPF
     MD5 check sum: 00fb224312de0c5b6853bd333518df6f
     Pseudo is Ultrasoft, Zval =  4.0
     Generated by new atomic code, or converted to UPF format
     Using radial grid of  627 points,  4 beta functions with: 
                l(1) =   0
                l(2) =   0
                l(3) =   1
                l(4) =   1
     Q(r) pseudized with 0 coefficients 


     atomic species   valence    mass     pseudopotential
        C              4.00    12.00000     C ( 1.00)

      4 Sym. Ops. (no inversion) found
          (note:  4 additional sym.ops. were found but ignored
           their fractional transations are incommensurate with FFT grid)

                                    s                        frac. trans.

      isym =  1     identity                                     

 cryst.   s( 1) = (     1          0          0      )
                  (     0          1          0      )
                  (     0          0          1      )

 cart.    s( 1) = (  1.0000000  0.0000000  0.0000000 )
                  (  0.0000000  1.0000000  0.0000000 )
                  (  0.0000000  0.0000000  1.0000000 )


      isym =  2     180 deg rotation - cart. axis [0,1,0]        

 cryst.   s( 2) = (    -1          0          0      )
                  (     1          1          0      )
                  (     0          0         -1      )

 cart.    s( 2) = ( -1.0000000  0.0000000  0.0000000 )
                  (  0.0000000  1.0000000  0.0000000 )
                  (  0.0000000  0.0000000 -1.0000000 )


      isym =  3     inv. 180 deg rotation - cart. axis [0,0,1]   

 cryst.   s( 3) = (     1          0          0      )
                  (     0          1          0      )
                  (     0          0         -1      )

 cart.    s( 3) = (  1.0000000  0.0000000  0.0000000 )
                  (  0.0000000  1.0000000  0.0000000 )
                  (  0.0000000  0.0000000 -1.0000000 )


      isym =  4     inv. 180 deg rotation - cart. axis [1,0,0]   

 cryst.   s( 4) = (    -1          0          0      )
                  (     1          1          0      )
                  (     0          0          1      )

 cart.    s( 4) = ( -1.0000000  0.0000000  0.0000000 )
                  (  0.0000000  1.0000000  0.0000000 )
                  (  0.0000000  0.0000000  1.0000000 )


     point group C_2v (mm2) 
     there are  4 classes
     the character table:

       E     C2    s_xz  s_yz 
A_1    1.00  1.00  1.00  1.00
A_2    1.00  1.00 -1.00 -1.00
B_1    1.00 -1.00  1.00 -1.00
B_2    1.00 -1.00 -1.00  1.00

     the symmetry operations in each class:
     E        1
     C2       2
     s_xz     3
     s_yz     4

   Cartesian axes

     site n.     atom                  positions (alat units)
         1           C   tau(   1) = (   0.0000000   0.0000000   0.0000000  )
         2           C   tau(   2) = (   0.0000000   0.5771134   0.0000000  )

   Crystallographic axes

     site n.     atom                  positions (cryst. coord.)
         1           C   tau(   1) = (  0.0000000  0.0000000  0.0000000  )
         2           C   tau(   2) = (  0.3331966  0.6663931  0.0000000  )

     number of k points=   200  Fermi-Dirac smearing, width (Ry)=  0.0000
                       cart. coord. in units 2pi/alat
        k(    1) = (   0.0312500   0.0541266   0.0000000), wk =   0.0104167
        k(    2) = (   0.0312500   0.1262954   0.0000000), wk =   0.0104167
        k(    3) = (   0.0312500   0.1984642   0.0000000), wk =   0.0104167
        k(    4) = (   0.0312500   0.2706329   0.0000000), wk =   0.0104167
        k(    5) = (   0.0312500   0.3428017   0.0000000), wk =   0.0104167
        k(    6) = (   0.0312500   0.4149705   0.0000000), wk =   0.0104167
        k(    7) = (   0.0312500   0.4871393   0.0000000), wk =   0.0104167
        k(    8) = (   0.0312500   0.5593081   0.0000000), wk =   0.0104167
        k(    9) = (   0.0312500  -0.5232237   0.0000000), wk =   0.0104167
        k(   10) = (   0.0312500  -0.4510549   0.0000000), wk =   0.0104167
        k(   11) = (   0.0312500  -0.3788861   0.0000000), wk =   0.0104167
        k(   12) = (   0.0312500  -0.3067173   0.0000000), wk =   0.0104167
        k(   13) = (   0.0312500  -0.2345485   0.0000000), wk =   0.0104167
        k(   14) = (   0.0312500  -0.1623798   0.0000000), wk =   0.0104167
        k(   15) = (   0.0312500  -0.0902110   0.0000000), wk =   0.0104167
        k(   16) = (   0.0312500  -0.0180422   0.0000000), wk =   0.0104167
        k(   17) = (   0.0937500   0.1623798   0.0000000), wk =   0.0104167
        k(   18) = (   0.0937500   0.2345485   0.0000000), wk =   0.0104167
        k(   19) = (   0.0937500   0.3067173   0.0000000), wk =   0.0104167
        k(   20) = (   0.0937500   0.3788861   0.0000000), wk =   0.0104167
        k(   21) = (   0.0937500   0.4510549   0.0000000), wk =   0.0104167
        k(   22) = (   0.0937500   0.5232237   0.0000000), wk =   0.0104167
        k(   23) = (   0.0937500   0.5953925   0.0000000), wk =   0.0104167
        k(   24) = (   0.0937500  -0.4871393   0.0000000), wk =   0.0104167
        k(   25) = (   0.0937500  -0.4149705   0.0000000), wk =   0.0104167
        k(   26) = (   0.0937500  -0.3428017   0.0000000), wk =   0.0104167
        k(   27) = (   0.0937500  -0.2706329   0.0000000), wk =   0.0104167
        k(   28) = (   0.0937500  -0.1984642   0.0000000), wk =   0.0104167
        k(   29) = (   0.0937500  -0.1262954   0.0000000), wk =   0.0104167
        k(   30) = (   0.0937500  -0.0541266   0.0000000), wk =   0.0104167
        k(   31) = (   0.1562500   0.2706329   0.0000000), wk =   0.0104167
        k(   32) = (   0.1562500   0.3428017   0.0000000), wk =   0.0104167
        k(   33) = (   0.1562500   0.4149705   0.0000000), wk =   0.0104167
        k(   34) = (   0.1562500   0.4871393   0.0000000), wk =   0.0104167
        k(   35) = (   0.1562500   0.5593081   0.0000000), wk =   0.0104167
        k(   36) = (   0.1562500   0.6314769   0.0000000), wk =   0.0104167
        k(   37) = (   0.1562500  -0.4510549   0.0000000), wk =   0.0104167
        k(   38) = (   0.1562500  -0.3788861   0.0000000), wk =   0.0104167
        k(   39) = (   0.1562500  -0.3067173   0.0000000), wk =   0.0104167
        k(   40) = (   0.1562500  -0.2345485   0.0000000), wk =   0.0104167
        k(   41) = (   0.1562500  -0.1623798   0.0000000), wk =   0.0104167
        k(   42) = (   0.1562500  -0.0902110   0.0000000), wk =   0.0104167
        k(   43) = (   0.2187500   0.3788861   0.0000000), wk =   0.0104167
        k(   44) = (   0.2187500   0.4510549   0.0000000), wk =   0.0104167
        k(   45) = (   0.2187500   0.5232237   0.0000000), wk =   0.0104167
        k(   46) = (   0.2187500   0.5953925   0.0000000), wk =   0.0104167
        k(   47) = (   0.2187500   0.6675612   0.0000000), wk =   0.0104167
        k(   48) = (   0.2187500  -0.4149705   0.0000000), wk =   0.0104167
        k(   49) = (   0.2187500  -0.3428017   0.0000000), wk =   0.0104167
        k(   50) = (   0.2187500  -0.2706329   0.0000000), wk =   0.0104167
        k(   51) = (   0.2187500  -0.1984642   0.0000000), wk =   0.0104167
        k(   52) = (   0.2187500  -0.1262954   0.0000000), wk =   0.0104167
        k(   53) = (   0.2812500   0.4871393   0.0000000), wk =   0.0104167
        k(   54) = (   0.2812500   0.5593081   0.0000000), wk =   0.0104167
        k(   55) = (   0.2812500   0.6314769   0.0000000), wk =   0.0104167
        k(   56) = (   0.2812500   0.7036456   0.0000000), wk =   0.0104167
        k(   57) = (   0.2812500  -0.3788861   0.0000000), wk =   0.0104167
        k(   58) = (   0.2812500  -0.3067173   0.0000000), wk =   0.0104167
        k(   59) = (   0.2812500  -0.2345485   0.0000000), wk =   0.0104167
        k(   60) = (   0.2812500  -0.1623798   0.0000000), wk =   0.0104167
        k(   61) = (   0.3437500   0.5953925   0.0000000), wk =   0.0104167
        k(   62) = (   0.3437500   0.6675612   0.0000000), wk =   0.0104167
        k(   63) = (   0.3437500   0.7397300   0.0000000), wk =   0.0104167
        k(   64) = (   0.3437500  -0.3428017   0.0000000), wk =   0.0104167
        k(   65) = (   0.3437500  -0.2706329   0.0000000), wk =   0.0104167
        k(   66) = (   0.3437500  -0.1984642   0.0000000), wk =   0.0104167
        k(   67) = (   0.4062500   0.7036456   0.0000000), wk =   0.0104167
        k(   68) = (   0.4062500   0.7758144   0.0000000), wk =   0.0104167
        k(   69) = (   0.4062500  -0.3067173   0.0000000), wk =   0.0104167
        k(   70) = (   0.4062500  -0.2345485   0.0000000), wk =   0.0104167
        k(   71) = (   0.4687500   0.8118988   0.0000000), wk =   0.0104167
        k(   72) = (   0.4687500  -0.2706329   0.0000000), wk =   0.0104167
        k(   73) = (   0.0625000  -0.0000000   0.0000000), wk =   0.0052083
        k(   74) = (  -0.0937500   0.0902110   0.0000000), wk =   0.0104167
        k(   75) = (   0.1250000   0.0360844   0.0000000), wk =   0.0104167
        k(   76) = (  -0.1562500   0.1262954   0.0000000), wk =   0.0104167
        k(   77) = (   0.1875000   0.0721688   0.0000000), wk =   0.0104167
        k(   78) = (  -0.2187500   0.1623798   0.0000000), wk =   0.0104167
        k(   79) = (   0.2500000   0.1082532   0.0000000), wk =   0.0104167
        k(   80) = (  -0.2812500   0.1984642   0.0000000), wk =   0.0104167
        k(   81) = (   0.3125000   0.1443376   0.0000000), wk =   0.0104167
        k(   82) = (  -0.3437500   0.2345485   0.0000000), wk =   0.0104167
        k(   83) = (   0.3750000   0.1804220   0.0000000), wk =   0.0104167
        k(   84) = (  -0.4062500   0.2706329   0.0000000), wk =   0.0104167
        k(   85) = (   0.4375000   0.2165064   0.0000000), wk =   0.0104167
        k(   86) = (  -0.4687500   0.3067173   0.0000000), wk =   0.0104167
        k(   87) = (   0.5000000   0.2525907   0.0000000), wk =   0.0104167
        k(   88) = (   0.4687500  -0.2345485   0.0000000), wk =   0.0104167
        k(   89) = (  -0.4375000  -0.2886751   0.0000000), wk =   0.0104167
        k(   90) = (   0.4062500  -0.1984642   0.0000000), wk =   0.0104167
        k(   91) = (  -0.3750000  -0.2525907   0.0000000), wk =   0.0104167
        k(   92) = (   0.3437500  -0.1623798   0.0000000), wk =   0.0104167
        k(   93) = (  -0.3125000  -0.2165064   0.0000000), wk =   0.0104167
        k(   94) = (   0.2812500  -0.1262954   0.0000000), wk =   0.0104167
        k(   95) = (  -0.2500000  -0.1804220   0.0000000), wk =   0.0104167
        k(   96) = (   0.2187500  -0.0902110   0.0000000), wk =   0.0104167
        k(   97) = (  -0.1875000  -0.1443376   0.0000000), wk =   0.0104167
        k(   98) = (   0.1562500  -0.0541266   0.0000000), wk =   0.0104167
        k(   99) = (  -0.1250000  -0.1082532   0.0000000), wk =   0.0104167
        k(  100) = (   0.0937500  -0.0180422   0.0000000), wk =   0.0104167
        k(  101) = (  -0.0625000  -0.0721688   0.0000000), wk =   0.0104167
        k(  102) = (   0.0000000  -0.0360844   0.0000000), wk =   0.0052083
        k(  103) = (   0.1875000  -0.0000000   0.0000000), wk =   0.0052083
        k(  104) = (  -0.1562500   0.1984642   0.0000000), wk =   0.0104167
        k(  105) = (   0.2500000   0.0360844   0.0000000), wk =   0.0104167
        k(  106) = (  -0.2187500   0.2345485   0.0000000), wk =   0.0104167
        k(  107) = (   0.3125000   0.0721688   0.0000000), wk =   0.0104167
        k(  108) = (  -0.2812500   0.2706329   0.0000000), wk =   0.0104167
        k(  109) = (   0.3750000   0.1082532   0.0000000), wk =   0.0104167
        k(  110) = (  -0.3437500   0.3067173   0.0000000), wk =   0.0104167
        k(  111) = (   0.4375000   0.1443376   0.0000000), wk =   0.0104167
        k(  112) = (  -0.4062500   0.3428017   0.0000000), wk =   0.0104167
        k(  113) = (   0.5000000   0.1804220   0.0000000), wk =   0.0104167
        k(  114) = (  -0.4687500   0.3788861   0.0000000), wk =   0.0104167
        k(  115) = (   0.5625000   0.2165064   0.0000000), wk =   0.0104167
        k(  116) = (   0.4687500  -0.1623798   0.0000000), wk =   0.0104167
        k(  117) = (  -0.3750000  -0.3247595   0.0000000), wk =   0.0104167
        k(  118) = (   0.4062500  -0.1262954   0.0000000), wk =   0.0104167
        k(  119) = (  -0.3125000  -0.2886751   0.0000000), wk =   0.0104167
        k(  120) = (   0.3437500  -0.0902110   0.0000000), wk =   0.0104167
        k(  121) = (  -0.2500000  -0.2525907   0.0000000), wk =   0.0104167
        k(  122) = (   0.2812500  -0.0541266   0.0000000), wk =   0.0104167
        k(  123) = (  -0.1875000  -0.2165064   0.0000000), wk =   0.0104167
        k(  124) = (   0.2187500  -0.0180422   0.0000000), wk =   0.0104167
        k(  125) = (  -0.1250000  -0.1804220   0.0000000), wk =   0.0104167
        k(  126) = (   0.1562500   0.0180422   0.0000000), wk =   0.0104167
        k(  127) = (  -0.0625000  -0.1443376   0.0000000), wk =   0.0104167
        k(  128) = (   0.0000000  -0.1082532   0.0000000), wk =   0.0052083
        k(  129) = (   0.3125000   0.0000000   0.0000000), wk =   0.0052083
        k(  130) = (  -0.2187500   0.3067173   0.0000000), wk =   0.0104167
        k(  131) = (   0.3750000   0.0360844   0.0000000), wk =   0.0104167
        k(  132) = (  -0.2812500   0.3428017   0.0000000), wk =   0.0104167
        k(  133) = (   0.4375000   0.0721688   0.0000000), wk =   0.0104167
        k(  134) = (  -0.3437500   0.3788861   0.0000000), wk =   0.0104167
        k(  135) = (   0.5000000   0.1082532   0.0000000), wk =   0.0104167
        k(  136) = (  -0.4062500   0.4149705   0.0000000), wk =   0.0104167
        k(  137) = (   0.5625000   0.1443376   0.0000000), wk =   0.0104167
        k(  138) = (  -0.4687500   0.4510549   0.0000000), wk =   0.0104167
        k(  139) = (   0.6250000   0.1804220   0.0000000), wk =   0.0104167
        k(  140) = (   0.4687500  -0.0902110   0.0000000), wk =   0.0104167
        k(  141) = (  -0.3125000  -0.3608439   0.0000000), wk =   0.0104167
        k(  142) = (   0.4062500  -0.0541266   0.0000000), wk =   0.0104167
        k(  143) = (  -0.2500000  -0.3247595   0.0000000), wk =   0.0104167
        k(  144) = (   0.3437500  -0.0180422   0.0000000), wk =   0.0104167
        k(  145) = (  -0.1875000  -0.2886751   0.0000000), wk =   0.0104167
        k(  146) = (   0.2812500   0.0180422   0.0000000), wk =   0.0104167
        k(  147) = (  -0.1250000  -0.2525907   0.0000000), wk =   0.0104167
        k(  148) = (   0.2187500   0.0541266   0.0000000), wk =   0.0104167
        k(  149) = (  -0.0625000  -0.2165064   0.0000000), wk =   0.0104167
        k(  150) = (   0.0000000  -0.1804220   0.0000000), wk =   0.0052083
        k(  151) = (   0.4375000   0.0000000   0.0000000), wk =   0.0052083
        k(  152) = (  -0.2812500   0.4149705   0.0000000), wk =   0.0104167
        k(  153) = (   0.5000000   0.0360844   0.0000000), wk =   0.0104167
        k(  154) = (  -0.3437500   0.4510549   0.0000000), wk =   0.0104167
        k(  155) = (   0.5625000   0.0721688   0.0000000), wk =   0.0104167
        k(  156) = (  -0.4062500   0.4871393   0.0000000), wk =   0.0104167
        k(  157) = (   0.6250000   0.1082532   0.0000000), wk =   0.0104167
        k(  158) = (  -0.4687500   0.5232237   0.0000000), wk =   0.0104167
        k(  159) = (   0.6875000   0.1443376   0.0000000), wk =   0.0104167
        k(  160) = (   0.4687500  -0.0180422   0.0000000), wk =   0.0104167
        k(  161) = (  -0.2500000  -0.3969283   0.0000000), wk =   0.0104167
        k(  162) = (   0.4062500   0.0180422   0.0000000), wk =   0.0104167
        k(  163) = (  -0.1875000  -0.3608439   0.0000000), wk =   0.0104167
        k(  164) = (   0.3437500   0.0541266   0.0000000), wk =   0.0104167
        k(  165) = (  -0.1250000  -0.3247595   0.0000000), wk =   0.0104167
        k(  166) = (   0.2812500   0.0902110   0.0000000), wk =   0.0104167
        k(  167) = (  -0.0625000  -0.2886751   0.0000000), wk =   0.0104167
        k(  168) = (   0.0000000  -0.2525907   0.0000000), wk =   0.0052083
        k(  169) = (   0.5625000   0.0000000   0.0000000), wk =   0.0052083
        k(  170) = (  -0.3437500   0.5232237   0.0000000), wk =   0.0104167
        k(  171) = (   0.6250000   0.0360844   0.0000000), wk =   0.0104167
        k(  172) = (  -0.4062500   0.5593081   0.0000000), wk =   0.0104167
        k(  173) = (   0.6875000   0.0721688   0.0000000), wk =   0.0104167
        k(  174) = (  -0.4687500   0.5953925   0.0000000), wk =   0.0104167
        k(  175) = (   0.7500000   0.1082532   0.0000000), wk =   0.0104167
        k(  176) = (   0.4687500   0.0541266   0.0000000), wk =   0.0104167
        k(  177) = (  -0.1875000  -0.4330127   0.0000000), wk =   0.0104167
        k(  178) = (   0.4062500   0.0902110   0.0000000), wk =   0.0104167
        k(  179) = (  -0.1250000  -0.3969283   0.0000000), wk =   0.0104167
        k(  180) = (   0.3437500   0.1262954   0.0000000), wk =   0.0104167
        k(  181) = (  -0.0625000  -0.3608439   0.0000000), wk =   0.0104167
        k(  182) = (   0.0000000  -0.3247595   0.0000000), wk =   0.0052083
        k(  183) = (   0.6875000  -0.0000000   0.0000000), wk =   0.0052083
        k(  184) = (  -0.4062500   0.6314769   0.0000000), wk =   0.0104167
        k(  185) = (   0.7500000   0.0360844   0.0000000), wk =   0.0104167
        k(  186) = (  -0.4687500   0.6675612   0.0000000), wk =   0.0104167
        k(  187) = (   0.8125000   0.0721688   0.0000000), wk =   0.0104167
        k(  188) = (   0.4687500   0.1262954   0.0000000), wk =   0.0104167
        k(  189) = (  -0.1250000  -0.4690971   0.0000000), wk =   0.0104167
        k(  190) = (   0.4062500   0.1623798   0.0000000), wk =   0.0104167
        k(  191) = (  -0.0625000  -0.4330127   0.0000000), wk =   0.0104167
        k(  192) = (   0.0000000  -0.3969283   0.0000000), wk =   0.0052083
        k(  193) = (   0.8125000  -0.0000000   0.0000000), wk =   0.0052083
        k(  194) = (  -0.4687500   0.7397300   0.0000000), wk =   0.0104167
        k(  195) = (   0.8750000   0.0360844   0.0000000), wk =   0.0104167
        k(  196) = (   0.4687500   0.1984642   0.0000000), wk =   0.0104167
        k(  197) = (  -0.0625000  -0.5051815   0.0000000), wk =   0.0104167
        k(  198) = (   0.0000000  -0.4690971   0.0000000), wk =   0.0052083
        k(  199) = (   0.9375000   0.0000000   0.0000000), wk =   0.0052083
        k(  200) = (   0.0000000  -0.5412659   0.0000000), wk =   0.0052083

                       cryst. coord.
        k(    1) = (   0.0312500   0.0312500   0.0000000), wk =   0.0104167
        k(    2) = (   0.0312500   0.0937500   0.0000000), wk =   0.0104167
        k(    3) = (   0.0312500   0.1562500   0.0000000), wk =   0.0104167
        k(    4) = (   0.0312500   0.2187500   0.0000000), wk =   0.0104167
        k(    5) = (   0.0312500   0.2812500   0.0000000), wk =   0.0104167
        k(    6) = (   0.0312500   0.3437500   0.0000000), wk =   0.0104167
        k(    7) = (   0.0312500   0.4062500   0.0000000), wk =   0.0104167
        k(    8) = (   0.0312500   0.4687500   0.0000000), wk =   0.0104167
        k(    9) = (   0.0312500  -0.4687500   0.0000000), wk =   0.0104167
        k(   10) = (   0.0312500  -0.4062500   0.0000000), wk =   0.0104167
        k(   11) = (   0.0312500  -0.3437500   0.0000000), wk =   0.0104167
        k(   12) = (   0.0312500  -0.2812500   0.0000000), wk =   0.0104167
        k(   13) = (   0.0312500  -0.2187500   0.0000000), wk =   0.0104167
        k(   14) = (   0.0312500  -0.1562500   0.0000000), wk =   0.0104167
        k(   15) = (   0.0312500  -0.0937500   0.0000000), wk =   0.0104167
        k(   16) = (   0.0312500  -0.0312500   0.0000000), wk =   0.0104167
        k(   17) = (   0.0937500   0.0937500   0.0000000), wk =   0.0104167
        k(   18) = (   0.0937500   0.1562500   0.0000000), wk =   0.0104167
        k(   19) = (   0.0937500   0.2187500   0.0000000), wk =   0.0104167
        k(   20) = (   0.0937500   0.2812500   0.0000000), wk =   0.0104167
        k(   21) = (   0.0937500   0.3437500   0.0000000), wk =   0.0104167
        k(   22) = (   0.0937500   0.4062500   0.0000000), wk =   0.0104167
        k(   23) = (   0.0937500   0.4687500   0.0000000), wk =   0.0104167
        k(   24) = (   0.0937500  -0.4687500   0.0000000), wk =   0.0104167
        k(   25) = (   0.0937500  -0.4062500   0.0000000), wk =   0.0104167
        k(   26) = (   0.0937500  -0.3437500   0.0000000), wk =   0.0104167
        k(   27) = (   0.0937500  -0.2812500   0.0000000), wk =   0.0104167
        k(   28) = (   0.0937500  -0.2187500   0.0000000), wk =   0.0104167
        k(   29) = (   0.0937500  -0.1562500   0.0000000), wk =   0.0104167
        k(   30) = (   0.0937500  -0.0937500   0.0000000), wk =   0.0104167
        k(   31) = (   0.1562500   0.1562500   0.0000000), wk =   0.0104167
        k(   32) = (   0.1562500   0.2187500   0.0000000), wk =   0.0104167
        k(   33) = (   0.1562500   0.2812500   0.0000000), wk =   0.0104167
        k(   34) = (   0.1562500   0.3437500   0.0000000), wk =   0.0104167
        k(   35) = (   0.1562500   0.4062500   0.0000000), wk =   0.0104167
        k(   36) = (   0.1562500   0.4687500   0.0000000), wk =   0.0104167
        k(   37) = (   0.1562500  -0.4687500   0.0000000), wk =   0.0104167
        k(   38) = (   0.1562500  -0.4062500   0.0000000), wk =   0.0104167
        k(   39) = (   0.1562500  -0.3437500   0.0000000), wk =   0.0104167
        k(   40) = (   0.1562500  -0.2812500   0.0000000), wk =   0.0104167
        k(   41) = (   0.1562500  -0.2187500   0.0000000), wk =   0.0104167
        k(   42) = (   0.1562500  -0.1562500   0.0000000), wk =   0.0104167
        k(   43) = (   0.2187500   0.2187500   0.0000000), wk =   0.0104167
        k(   44) = (   0.2187500   0.2812500   0.0000000), wk =   0.0104167
        k(   45) = (   0.2187500   0.3437500   0.0000000), wk =   0.0104167
        k(   46) = (   0.2187500   0.4062500   0.0000000), wk =   0.0104167
        k(   47) = (   0.2187500   0.4687500   0.0000000), wk =   0.0104167
        k(   48) = (   0.2187500  -0.4687500   0.0000000), wk =   0.0104167
        k(   49) = (   0.2187500  -0.4062500   0.0000000), wk =   0.0104167
        k(   50) = (   0.2187500  -0.3437500   0.0000000), wk =   0.0104167
        k(   51) = (   0.2187500  -0.2812500   0.0000000), wk =   0.0104167
        k(   52) = (   0.2187500  -0.2187500   0.0000000), wk =   0.0104167
        k(   53) = (   0.2812500   0.2812500   0.0000000), wk =   0.0104167
        k(   54) = (   0.2812500   0.3437500   0.0000000), wk =   0.0104167
        k(   55) = (   0.2812500   0.4062500   0.0000000), wk =   0.0104167
        k(   56) = (   0.2812500   0.4687500   0.0000000), wk =   0.0104167
        k(   57) = (   0.2812500  -0.4687500   0.0000000), wk =   0.0104167
        k(   58) = (   0.2812500  -0.4062500   0.0000000), wk =   0.0104167
        k(   59) = (   0.2812500  -0.3437500   0.0000000), wk =   0.0104167
        k(   60) = (   0.2812500  -0.2812500   0.0000000), wk =   0.0104167
        k(   61) = (   0.3437500   0.3437500   0.0000000), wk =   0.0104167
        k(   62) = (   0.3437500   0.4062500   0.0000000), wk =   0.0104167
        k(   63) = (   0.3437500   0.4687500   0.0000000), wk =   0.0104167
        k(   64) = (   0.3437500  -0.4687500   0.0000000), wk =   0.0104167
        k(   65) = (   0.3437500  -0.4062500   0.0000000), wk =   0.0104167
        k(   66) = (   0.3437500  -0.3437500   0.0000000), wk =   0.0104167
        k(   67) = (   0.4062500   0.4062500   0.0000000), wk =   0.0104167
        k(   68) = (   0.4062500   0.4687500   0.0000000), wk =   0.0104167
        k(   69) = (   0.4062500  -0.4687500   0.0000000), wk =   0.0104167
        k(   70) = (   0.4062500  -0.4062500   0.0000000), wk =   0.0104167
        k(   71) = (   0.4687500   0.4687500   0.0000000), wk =   0.0104167
        k(   72) = (   0.4687500  -0.4687500   0.0000000), wk =   0.0104167
        k(   73) = (   0.0625000  -0.0312500   0.0000000), wk =   0.0052083
        k(   74) = (  -0.0937500   0.1250000   0.0000000), wk =   0.0104167
        k(   75) = (   0.1250000  -0.0312500   0.0000000), wk =   0.0104167
        k(   76) = (  -0.1562500   0.1875000   0.0000000), wk =   0.0104167
        k(   77) = (   0.1875000  -0.0312500   0.0000000), wk =   0.0104167
        k(   78) = (  -0.2187500   0.2500000   0.0000000), wk =   0.0104167
        k(   79) = (   0.2500000  -0.0312500   0.0000000), wk =   0.0104167
        k(   80) = (  -0.2812500   0.3125000   0.0000000), wk =   0.0104167
        k(   81) = (   0.3125000  -0.0312500   0.0000000), wk =   0.0104167
        k(   82) = (  -0.3437500   0.3750000   0.0000000), wk =   0.0104167
        k(   83) = (   0.3750000  -0.0312500   0.0000000), wk =   0.0104167
        k(   84) = (  -0.4062500   0.4375000   0.0000000), wk =   0.0104167
        k(   85) = (   0.4375000  -0.0312500   0.0000000), wk =   0.0104167
        k(   86) = (  -0.4687500   0.5000000   0.0000000), wk =   0.0104167
        k(   87) = (   0.5000000  -0.0312500   0.0000000), wk =   0.0104167
        k(   88) = (   0.4687500  -0.4375000   0.0000000), wk =   0.0104167
        k(   89) = (  -0.4375000  -0.0312500   0.0000000), wk =   0.0104167
        k(   90) = (   0.4062500  -0.3750000   0.0000000), wk =   0.0104167
        k(   91) = (  -0.3750000  -0.0312500   0.0000000), wk =   0.0104167
        k(   92) = (   0.3437500  -0.3125000   0.0000000), wk =   0.0104167
        k(   93) = (  -0.3125000  -0.0312500   0.0000000), wk =   0.0104167
        k(   94) = (   0.2812500  -0.2500000   0.0000000), wk =   0.0104167
        k(   95) = (  -0.2500000  -0.0312500   0.0000000), wk =   0.0104167
        k(   96) = (   0.2187500  -0.1875000   0.0000000), wk =   0.0104167
        k(   97) = (  -0.1875000  -0.0312500   0.0000000), wk =   0.0104167
        k(   98) = (   0.1562500  -0.1250000   0.0000000), wk =   0.0104167
        k(   99) = (  -0.1250000  -0.0312500   0.0000000), wk =   0.0104167
        k(  100) = (   0.0937500  -0.0625000   0.0000000), wk =   0.0104167
        k(  101) = (  -0.0625000  -0.0312500   0.0000000), wk =   0.0104167
        k(  102) = (   0.0000000  -0.0312500   0.0000000), wk =   0.0052083
        k(  103) = (   0.1875000  -0.0937500   0.0000000), wk =   0.0052083
        k(  104) = (  -0.1562500   0.2500000   0.0000000), wk =   0.0104167
        k(  105) = (   0.2500000  -0.0937500   0.0000000), wk =   0.0104167
        k(  106) = (  -0.2187500   0.3125000   0.0000000), wk =   0.0104167
        k(  107) = (   0.3125000  -0.0937500   0.0000000), wk =   0.0104167
        k(  108) = (  -0.2812500   0.3750000   0.0000000), wk =   0.0104167
        k(  109) = (   0.3750000  -0.0937500   0.0000000), wk =   0.0104167
        k(  110) = (  -0.3437500   0.4375000   0.0000000), wk =   0.0104167
        k(  111) = (   0.4375000  -0.0937500   0.0000000), wk =   0.0104167
        k(  112) = (  -0.4062500   0.5000000   0.0000000), wk =   0.0104167
        k(  113) = (   0.5000000  -0.0937500   0.0000000), wk =   0.0104167
        k(  114) = (  -0.4687500   0.5625000   0.0000000), wk =   0.0104167
        k(  115) = (   0.5625000  -0.0937500   0.0000000), wk =   0.0104167
        k(  116) = (   0.4687500  -0.3750000   0.0000000), wk =   0.0104167
        k(  117) = (  -0.3750000  -0.0937500   0.0000000), wk =   0.0104167
        k(  118) = (   0.4062500  -0.3125000   0.0000000), wk =   0.0104167
        k(  119) = (  -0.3125000  -0.0937500   0.0000000), wk =   0.0104167
        k(  120) = (   0.3437500  -0.2500000   0.0000000), wk =   0.0104167
        k(  121) = (  -0.2500000  -0.0937500   0.0000000), wk =   0.0104167
        k(  122) = (   0.2812500  -0.1875000   0.0000000), wk =   0.0104167
        k(  123) = (  -0.1875000  -0.0937500   0.0000000), wk =   0.0104167
        k(  124) = (   0.2187500  -0.1250000   0.0000000), wk =   0.0104167
        k(  125) = (  -0.1250000  -0.0937500   0.0000000), wk =   0.0104167
        k(  126) = (   0.1562500  -0.0625000   0.0000000), wk =   0.0104167
        k(  127) = (  -0.0625000  -0.0937500   0.0000000), wk =   0.0104167
        k(  128) = (   0.0000000  -0.0937500   0.0000000), wk =   0.0052083
        k(  129) = (   0.3125000  -0.1562500   0.0000000), wk =   0.0052083
        k(  130) = (  -0.2187500   0.3750000   0.0000000), wk =   0.0104167
        k(  131) = (   0.3750000  -0.1562500   0.0000000), wk =   0.0104167
        k(  132) = (  -0.2812500   0.4375000   0.0000000), wk =   0.0104167
        k(  133) = (   0.4375000  -0.1562500   0.0000000), wk =   0.0104167
        k(  134) = (  -0.3437500   0.5000000   0.0000000), wk =   0.0104167
        k(  135) = (   0.5000000  -0.1562500   0.0000000), wk =   0.0104167
        k(  136) = (  -0.4062500   0.5625000   0.0000000), wk =   0.0104167
        k(  137) = (   0.5625000  -0.1562500   0.0000000), wk =   0.0104167
        k(  138) = (  -0.4687500   0.6250000   0.0000000), wk =   0.0104167
        k(  139) = (   0.6250000  -0.1562500   0.0000000), wk =   0.0104167
        k(  140) = (   0.4687500  -0.3125000   0.0000000), wk =   0.0104167
        k(  141) = (  -0.3125000  -0.1562500   0.0000000), wk =   0.0104167
        k(  142) = (   0.4062500  -0.2500000   0.0000000), wk =   0.0104167
        k(  143) = (  -0.2500000  -0.1562500   0.0000000), wk =   0.0104167
        k(  144) = (   0.3437500  -0.1875000   0.0000000), wk =   0.0104167
        k(  145) = (  -0.1875000  -0.1562500   0.0000000), wk =   0.0104167
        k(  146) = (   0.2812500  -0.1250000   0.0000000), wk =   0.0104167
        k(  147) = (  -0.1250000  -0.1562500   0.0000000), wk =   0.0104167
        k(  148) = (   0.2187500  -0.0625000   0.0000000), wk =   0.0104167
        k(  149) = (  -0.0625000  -0.1562500   0.0000000), wk =   0.0104167
        k(  150) = (   0.0000000  -0.1562500   0.0000000), wk =   0.0052083
        k(  151) = (   0.4375000  -0.2187500   0.0000000), wk =   0.0052083
        k(  152) = (  -0.2812500   0.5000000   0.0000000), wk =   0.0104167
        k(  153) = (   0.5000000  -0.2187500   0.0000000), wk =   0.0104167
        k(  154) = (  -0.3437500   0.5625000   0.0000000), wk =   0.0104167
        k(  155) = (   0.5625000  -0.2187500   0.0000000), wk =   0.0104167
        k(  156) = (  -0.4062500   0.6250000   0.0000000), wk =   0.0104167
        k(  157) = (   0.6250000  -0.2187500   0.0000000), wk =   0.0104167
        k(  158) = (  -0.4687500   0.6875000   0.0000000), wk =   0.0104167
        k(  159) = (   0.6875000  -0.2187500   0.0000000), wk =   0.0104167
        k(  160) = (   0.4687500  -0.2500000   0.0000000), wk =   0.0104167
        k(  161) = (  -0.2500000  -0.2187500   0.0000000), wk =   0.0104167
        k(  162) = (   0.4062500  -0.1875000   0.0000000), wk =   0.0104167
        k(  163) = (  -0.1875000  -0.2187500   0.0000000), wk =   0.0104167
        k(  164) = (   0.3437500  -0.1250000   0.0000000), wk =   0.0104167
        k(  165) = (  -0.1250000  -0.2187500   0.0000000), wk =   0.0104167
        k(  166) = (   0.2812500  -0.0625000   0.0000000), wk =   0.0104167
        k(  167) = (  -0.0625000  -0.2187500   0.0000000), wk =   0.0104167
        k(  168) = (   0.0000000  -0.2187500   0.0000000), wk =   0.0052083
        k(  169) = (   0.5625000  -0.2812500   0.0000000), wk =   0.0052083
        k(  170) = (  -0.3437500   0.6250000   0.0000000), wk =   0.0104167
        k(  171) = (   0.6250000  -0.2812500   0.0000000), wk =   0.0104167
        k(  172) = (  -0.4062500   0.6875000   0.0000000), wk =   0.0104167
        k(  173) = (   0.6875000  -0.2812500   0.0000000), wk =   0.0104167
        k(  174) = (  -0.4687500   0.7500000   0.0000000), wk =   0.0104167
        k(  175) = (   0.7500000  -0.2812500   0.0000000), wk =   0.0104167
        k(  176) = (   0.4687500  -0.1875000   0.0000000), wk =   0.0104167
        k(  177) = (  -0.1875000  -0.2812500   0.0000000), wk =   0.0104167
        k(  178) = (   0.4062500  -0.1250000   0.0000000), wk =   0.0104167
        k(  179) = (  -0.1250000  -0.2812500   0.0000000), wk =   0.0104167
        k(  180) = (   0.3437500  -0.0625000   0.0000000), wk =   0.0104167
        k(  181) = (  -0.0625000  -0.2812500   0.0000000), wk =   0.0104167
        k(  182) = (   0.0000000  -0.2812500   0.0000000), wk =   0.0052083
        k(  183) = (   0.6875000  -0.3437500   0.0000000), wk =   0.0052083
        k(  184) = (  -0.4062500   0.7500000   0.0000000), wk =   0.0104167
        k(  185) = (   0.7500000  -0.3437500   0.0000000), wk =   0.0104167
        k(  186) = (  -0.4687500   0.8125000   0.0000000), wk =   0.0104167
        k(  187) = (   0.8125000  -0.3437500   0.0000000), wk =   0.0104167
        k(  188) = (   0.4687500  -0.1250000   0.0000000), wk =   0.0104167
        k(  189) = (  -0.1250000  -0.3437500   0.0000000), wk =   0.0104167
        k(  190) = (   0.4062500  -0.0625000   0.0000000), wk =   0.0104167
        k(  191) = (  -0.0625000  -0.3437500   0.0000000), wk =   0.0104167
        k(  192) = (   0.0000000  -0.3437500   0.0000000), wk =   0.0052083
        k(  193) = (   0.8125000  -0.4062500   0.0000000), wk =   0.0052083
        k(  194) = (  -0.4687500   0.8750000   0.0000000), wk =   0.0104167
        k(  195) = (   0.8750000  -0.4062500   0.0000000), wk =   0.0104167
        k(  196) = (   0.4687500  -0.0625000   0.0000000), wk =   0.0104167
        k(  197) = (  -0.0625000  -0.4062500   0.0000000), wk =   0.0104167
        k(  198) = (   0.0000000  -0.4062500   0.0000000), wk =   0.0052083
        k(  199) = (   0.9375000  -0.4687500   0.0000000), wk =   0.0052083
        k(  200) = (   0.0000000  -0.4687500   0.0000000), wk =   0.0052083

     Dense  grid:   136167 G-vectors     FFT dimensions: (  36,  36, 270)

     Smooth grid:    48207 G-vectors     FFT dimensions: (  24,  24, 192)

     Largest allocated arrays     est. size (Mb)     dimensions
        Kohn-Sham Wavefunctions         0.20 Mb     (   1598,    8)
        NL pseudopotentials             0.39 Mb     (   1598,   16)
        Each V/rho on FFT grid          1.34 Mb     (  88128)
        Each G-vector array             0.26 Mb     (  34030)
        G-vector shells                 0.03 Mb     (   4229)
     Largest temporary arrays     est. size (Mb)     dimensions
        Auxiliary wavefunctions         0.78 Mb     (   1598,   32)
        Each subspace H/S matrix        0.02 Mb     (  32,  32)
        Each <psi_i|beta_j> matrix      0.00 Mb     (     16,    8)
        Arrays for rho mixing          10.76 Mb     (  88128,   8)

     Initial potential from superposition of free atoms

     starting charge    7.99989, renormalised to    8.00000

     negative rho (up, down):  0.190E-05 0.000E+00
     Starting wfc are    8 randomized atomic wfcs

     total cpu time spent up to now is        7.2 secs

     per-process dynamical memory:    24.0 Mb

     Self-consistent Calculation

     iteration #  1     ecut=    64.00 Ry     beta=0.30
     Davidson diagonalization with overlap
     ethr =  1.00E-02,  avg # of iterations =  4.9

     negative rho (up, down):  0.112E-05 0.000E+00

     total cpu time spent up to now is       36.9 secs

     total energy              =     -22.81403983 Ry
     Harris-Foulkes estimate   =     -22.88426293 Ry
     estimated scf accuracy    <       0.20705470 Ry

     iteration #  2     ecut=    64.00 Ry     beta=0.30
     Davidson diagonalization with overlap
     ethr =  2.59E-03,  avg # of iterations =  1.7

     negative rho (up, down):  0.269E-05 0.000E+00

     total cpu time spent up to now is       57.8 secs

     total energy              =     -22.77987770 Ry
     Harris-Foulkes estimate   =     -22.81966100 Ry
     estimated scf accuracy    <       0.06953561 Ry

     iteration #  3     ecut=    64.00 Ry     beta=0.30
     Davidson diagonalization with overlap
     ethr =  8.69E-04,  avg # of iterations =  5.7

     negative rho (up, down):  0.245E-05 0.000E+00

     total cpu time spent up to now is       81.5 secs

     total energy              =     -22.79104180 Ry
     Harris-Foulkes estimate   =     -22.79107642 Ry
     estimated scf accuracy    <       0.00126839 Ry

     iteration #  4     ecut=    64.00 Ry     beta=0.30
     Davidson diagonalization with overlap
     ethr =  1.59E-05,  avg # of iterations =  5.7

     negative rho (up, down):  0.255E-05 0.000E+00

     total cpu time spent up to now is      117.9 secs

     total energy              =     -22.79097957 Ry
     Harris-Foulkes estimate   =     -22.79146898 Ry
     estimated scf accuracy    <       0.00081333 Ry

     iteration #  5     ecut=    64.00 Ry     beta=0.30
     Davidson diagonalization with overlap
     ethr =  1.02E-05,  avg # of iterations =  2.8

     negative rho (up, down):  0.273E-05 0.000E+00

     total cpu time spent up to now is      140.3 secs

     total energy              =     -22.79110392 Ry
     Harris-Foulkes estimate   =     -22.79110317 Ry
     estimated scf accuracy    <       0.00000200 Ry

     iteration #  6     ecut=    64.00 Ry     beta=0.30
     Davidson diagonalization with overlap
     ethr =  2.51E-08,  avg # of iterations =  3.6

     negative rho (up, down):  0.278E-05 0.000E+00

     total cpu time spent up to now is      161.0 secs

     total energy              =     -22.79110504 Ry
     Harris-Foulkes estimate   =     -22.79110614 Ry
     estimated scf accuracy    <       0.00000199 Ry

     iteration #  7     ecut=    64.00 Ry     beta=0.30
     Davidson diagonalization with overlap
     ethr =  2.48E-08,  avg # of iterations =  2.0

     negative rho (up, down):  0.277E-05 0.000E+00

     total cpu time spent up to now is      177.2 secs

     total energy              =     -22.79110532 Ry
     Harris-Foulkes estimate   =     -22.79110532 Ry
     estimated scf accuracy    <          2.7E-09 Ry

     iteration #  8     ecut=    64.00 Ry     beta=0.30
     Davidson diagonalization with overlap
     ethr =  3.44E-11,  avg # of iterations =  3.0

     negative rho (up, down):  0.279E-05 0.000E+00

     total cpu time spent up to now is      195.3 secs

     total energy              =     -22.79110533 Ry
     Harris-Foulkes estimate   =     -22.79110533 Ry
     estimated scf accuracy    <          3.2E-09 Ry

     iteration #  9     ecut=    64.00 Ry     beta=0.30
     Davidson diagonalization with overlap
     ethr =  3.44E-11,  avg # of iterations =  1.8

     negative rho (up, down):  0.281E-05 0.000E+00

     total cpu time spent up to now is      210.6 secs

     total energy              =     -22.79110533 Ry
     Harris-Foulkes estimate   =     -22.79110533 Ry
     estimated scf accuracy    <          1.1E-10 Ry

     iteration # 10     ecut=    64.00 Ry     beta=0.30
     Davidson diagonalization with overlap
     ethr =  1.43E-12,  avg # of iterations =  1.3

     negative rho (up, down):  0.283E-05 0.000E+00

     total cpu time spent up to now is      225.7 secs

     total energy              =     -22.79110533 Ry
     Harris-Foulkes estimate   =     -22.79110533 Ry
     estimated scf accuracy    <          2.6E-12 Ry

     iteration # 11     ecut=    64.00 Ry     beta=0.30
     Davidson diagonalization with overlap
     ethr =  1.00E-13,  avg # of iterations =  1.9

     negative rho (up, down):  0.288E-05 0.000E+00

     total cpu time spent up to now is      242.1 secs

     End of self-consistent calculation

          k = 0.0312 0.0541 0.0000 (  5971 PWs)   bands (ev):

   -21.7824  -9.8780  -5.6626  -5.5270   1.0433   1.8402   2.1494   3.1111

     occupation numbers 
     0.0104   0.0104   0.0104   0.0104   0.0000   0.0000   0.0000   0.0000

          k = 0.0312 0.1263 0.0000 (  5973 PWs)   bands (ev):

   -21.5516  -9.6019  -6.5067  -5.9814   1.3579   2.1588   2.4719   3.4305

     occupation numbers 
     0.0104   0.0104   0.0104   0.0104   0.0000   0.0000   0.0000   0.0000

          k = 0.0312 0.1985 0.0000 (  5959 PWs)   bands (ev):

   -21.1376  -9.1094  -7.8072  -6.6260   1.9240   2.7312   3.0524   4.0042

     occupation numbers 
     0.0104   0.0104   0.0104   0.0104   0.0000   0.0000   0.0000   0.0000

          k = 0.0312 0.2706 0.0000 (  5992 PWs)   bands (ev):

   -20.5432  -9.3553  -8.4098  -7.3015   2.7404   3.5512   3.8909   4.8173

     occupation numbers 
     0.0104   0.0104   0.0104   0.0104   0.0000   0.0000   0.0000   0.0000

          k = 0.0312 0.3428 0.0000 (  6016 PWs)   bands (ev):

   -19.7732 -10.9963  -7.9065  -7.5217   3.6086   3.8038   4.6691   4.9858

     occupation numbers 
     0.0104   0.0104   0.0104   0.0104   0.0000   0.0000   0.0000   0.0000

          k = 0.0312 0.4150 0.0000 (  6018 PWs)   bands (ev):

   -18.8359 -12.6283  -8.3828  -6.4865   1.9002   5.0857   5.5280   5.9787

     occupation numbers 
     0.0104   0.0104   0.0104   0.0104   0.0000   0.0000   0.0000   0.0000

          k = 0.0312 0.4871 0.0000 (  6026 PWs)   bands (ev):

   -17.7518 -14.1761  -8.6982  -5.4170   0.3553   5.3256   6.6878   7.5425

     occupation numbers 
     0.0104   0.0104   0.0104   0.0104   0.0000   0.0000   0.0000   0.0000

          k = 0.0312 0.5593 0.0000 (  6032 PWs)   bands (ev):

   -16.6728 -15.4586  -8.8361  -4.6884  -0.5862   5.2620   8.4521   9.3153

     occupation numbers 
     0.0104   0.0104   0.0104   0.0104   0.0000   0.0000   0.0000   0.0000

          k = 0.0312-0.5232 0.0000 (  6026 PWs)   bands (ev):

   -17.1786 -14.8846  -8.7900  -4.9661  -0.2369   5.2840   7.5439   8.4081

     occupation numbers 
     0.0104   0.0104   0.0104   0.0104   0.0000   0.0000   0.0000   0.0000

          k = 0.0312-0.4511 0.0000 (  6014 PWs)   bands (ev):

   -18.3097 -13.4175  -8.5620  -5.9428   1.0886   5.3728   5.9028   6.7313

     occupation numbers 
     0.0104   0.0104   0.0104   0.0104   0.0000   0.0000   0.0000   0.0000

          k = 0.0312-0.3789 0.0000 (  6028 PWs)   bands (ev):

   -19.3247 -11.8183  -8.1632  -7.0182   2.7517   4.4245   5.2880   5.5728

     occupation numbers 
     0.0104   0.0104   0.0104   0.0104   0.0000   0.0000   0.0000   0.0000

          k = 0.0312-0.3067 0.0000 (  6019 PWs)   bands (ev):

   -20.1798 -10.1716  -7.9875  -7.6173   3.2416   4.0212   4.4066   4.5463

     occupation numbers 
     0.0104   0.0104   0.0104   0.0104   0.0000   0.0000   0.0000   0.0000

          k = 0.0312-0.2345 0.0000 (  5980 PWs)   bands (ev):

   -20.8627  -8.7846  -8.5614  -6.9675   2.3010   3.1113   3.4394   4.3849

     occupation numbers 
     0.0104   0.0104   0.0104   0.0104   0.0000   0.0000   0.0000   0.0000

          k = 0.0312-0.1624 0.0000 (  5962 PWs)   bands (ev):

   -21.3673  -9.3823  -7.1138  -6.2913   1.6095   2.4134   2.7299   3.6857

     occupation numbers 
     0.0104   0.0104   0.0104   0.0104   0.0000   0.0000   0.0000   0.0000

          k = 0.0312-0.0902 0.0000 (  5958 PWs)   bands (ev):

   -21.6900  -9.7674  -6.0139  -5.7184   1.1691   1.9677   2.2784   3.2389

     occupation numbers 
     0.0104   0.0104   0.0104   0.0104   0.0000   0.0000   0.0000   0.0000

          k = 0.0312-0.0180 0.0000 (  5949 PWs)   bands (ev):

   -21.8286  -9.9335  -5.4719  -5.4330   0.9804   1.7765   2.0849   3.0472

     occupation numbers 
     0.0104   0.0104   0.0104   0.0104   0.0000   0.0000   0.0000   0.0000

          k = 0.0938 0.1624 0.0000 (  5962 PWs)   bands (ev):

   -21.2294  -9.2183  -7.4194  -6.6418   1.7984   2.6043   2.9235   3.8770

     occupation numbers 
     0.0104   0.0104   0.0104   0.0104   0.0000   0.0000   0.0000   0.0000

          k = 0.0938 0.2345 0.0000 (  5982 PWs)   bands (ev):

   -20.7257  -8.6818  -8.6229  -7.4270   2.4902   3.3020   3.6331   4.5766

     occupation numbers 
     0.0104   0.0104   0.0104   0.0104   0.0000   0.0000   0.0000   0.0000

          k = 0.0938 0.3067 0.0000 (  6013 PWs)   bands (ev):

   -20.0442 -10.1785  -8.1416  -7.8286   3.4313   4.1675   4.3886   4.6006

     occupation numbers 
     0.0104   0.0104   0.0104   0.0104   0.0000   0.0000   0.0000   0.0000

          k = 0.0938 0.3789 0.0000 (  6028 PWs)   bands (ev):

   -19.1915 -11.7634  -8.7188  -6.8620   2.6321   4.6173   5.4616   5.8238

     occupation numbers 
     0.0104   0.0104   0.0104   0.0104   0.0000   0.0000   0.0000   0.0000

          k = 0.0938 0.4511 0.0000 (  6026 PWs)   bands (ev):

   -18.1802 -13.3283  -9.1316  -5.7870   1.0196   5.9903   6.2590   6.8966

     occupation numbers 
     0.0104   0.0104   0.0104   0.0104   0.0000   0.0000   0.0000   0.0000

          k = 0.0938 0.5232 0.0000 (  6029 PWs)   bands (ev):

   -17.0549 -14.7757  -9.3652  -4.8032  -0.2843   6.0731   7.7233   8.5407

     occupation numbers 
     0.0104   0.0104   0.0104   0.0104   0.0000   0.0000   0.0000   0.0000

          k = 0.0938 0.5954 0.0000 (  6036 PWs)   bands (ev):

   -16.5531 -15.3431  -9.4123  -4.5201  -0.6332   6.0518   8.6236   9.3896

     occupation numbers 
     0.0104   0.0104   0.0104   0.0104   0.0000   0.0000   0.0000   0.0000

          k = 0.0938-0.4871 0.0000 (  6024 PWs)   bands (ev):

   -17.6248 -14.0758  -9.2714  -5.2590   0.3013   6.1097   6.8761   7.6967

     occupation numbers 
     0.0104   0.0104   0.0104   0.0104   0.0000   0.0000   0.0000   0.0000

          k = 0.0938-0.4150 0.0000 (  6023 PWs)   bands (ev):

   -18.7043 -12.5538  -8.9468  -6.3311   1.8087   5.2970   6.1500   6.2850

     occupation numbers 
     0.0104   0.0104   0.0104   0.0104   0.0000   0.0000   0.0000   0.0000

          k = 0.0938-0.3428 0.0000 (  6005 PWs)   bands (ev):

   -19.6387 -10.9676  -8.4494  -7.3642   3.4632   3.9942   4.8360   5.1807

     occupation numbers 
     0.0104   0.0104   0.0104   0.0104   0.0000   0.0000   0.0000   0.0000

          k = 0.0938-0.2706 0.0000 (  5999 PWs)   bands (ev):

   -20.4069  -9.4106  -8.2494  -7.7989   2.9298   3.7425   4.0847   4.9922

     occupation numbers 
     0.0104   0.0104   0.0104   0.0104   0.0000   0.0000   0.0000   0.0000

          k = 0.0938-0.1985 0.0000 (  5974 PWs)   bands (ev):

   -21.0001  -8.9464  -8.0121  -7.0352   2.1130   2.9219   3.2461   4.1956

     occupation numbers 
     0.0104   0.0104   0.0104   0.0104   0.0000   0.0000   0.0000   0.0000

          k = 0.0938-0.1263 0.0000 (  5949 PWs)   bands (ev):

   -21.4133  -9.4372  -6.9138  -6.2792   1.5467   2.3498   2.6654   3.6219

     occupation numbers 
     0.0104   0.0104   0.0104   0.0104   0.0000   0.0000   0.0000   0.0000

          k = 0.0938-0.0541 0.0000 (  5975 PWs)   bands (ev):

   -21.6438  -9.7123  -6.1852  -5.8054   1.2320   2.0314   2.3429   3.3028

     occupation numbers 
     0.0104   0.0104   0.0104   0.0104   0.0000   0.0000   0.0000   0.0000

          k = 0.1562 0.2706 0.0000 (  6014 PWs)   bands (ev):

   -20.1348  -9.7124  -8.4333  -7.9317   3.3070   4.1235   4.4718   4.5658

     occupation numbers 
     0.0104   0.0104   0.0104   0.0104   0.0000   0.0000   0.0000   0.0000

          k = 0.1562 0.3428 0.0000 (  6042 PWs)   bands (ev):

   -19.3705 -10.9898  -9.2843  -7.0535   3.0999   4.3711   5.1911   5.5682

     occupation numbers 
     0.0104   0.0104   0.0104   0.0104   0.0000   0.0000   0.0000   0.0000

          k = 0.1562 0.4150 0.0000 (  6043 PWs)   bands (ev):

   -18.4421 -12.4351  -9.8726  -6.0258   1.5769   5.6765   6.4905   6.9210

     occupation numbers 
     0.0104   0.0104   0.0104   0.0104   0.0000   0.0000   0.0000   0.0000

          k = 0.1562 0.4871 0.0000 (  6051 PWs)   bands (ev):

   -17.3721 -13.8885 -10.2325  -4.9487   0.1519   7.1882   7.5378   7.9739

     occupation numbers 
     0.0104   0.0104   0.0104   0.0104   0.0000   0.0000   0.0000   0.0000

          k = 0.1562 0.5593 0.0000 (  6052 PWs)   bands (ev):

   -16.3144 -15.1212 -10.3846  -4.1852  -0.7692   7.4266   8.9616   9.3102

     occupation numbers 
     0.0104   0.0104   0.0104   0.0104   0.0000   0.0000   0.0000   0.0000

          k = 0.1562 0.6315 0.0000 (  6037 PWs)   bands (ev):

   -16.8088 -14.5678 -10.3340  -4.4816  -0.4196   7.4419   8.0858   8.7225

     occupation numbers 
     0.0104   0.0104   0.0104   0.0104   0.0000   0.0000   0.0000   0.0000

          k = 0.1562-0.4511 0.0000 (  6041 PWs)   bands (ev):

   -17.9222 -13.1696 -10.0793  -5.4815   0.8372   6.4146   7.2158   7.5686

     occupation numbers 
     0.0104   0.0104   0.0104   0.0104   0.0000   0.0000   0.0000   0.0000

          k = 0.1562-0.3789 0.0000 (  6026 PWs)   bands (ev):

   -18.9259 -11.7021  -9.6093  -6.5546   2.3381   4.9943   5.8133   6.2128

     occupation numbers 
     0.0104   0.0104   0.0104   0.0104   0.0000   0.0000   0.0000   0.0000

          k = 0.1562-0.3067 0.0000 (  6030 PWs)   bands (ev):

   -19.7739 -10.3202  -8.8918  -7.5144   3.8084   3.8466   4.6274   4.9879

     occupation numbers 
     0.0104   0.0104   0.0104   0.0104   0.0000   0.0000   0.0000   0.0000

          k = 0.1562-0.2345 0.0000 (  5999 PWs)   bands (ev):

   -20.4523  -9.1695  -8.3021  -7.9315   2.8675   3.6817   4.0202   4.9567

     occupation numbers 
     0.0104   0.0104   0.0104   0.0104   0.0000   0.0000   0.0000   0.0000

          k = 0.1562-0.1624 0.0000 (  5985 PWs)   bands (ev):

   -20.9542  -8.8926  -8.2226  -6.9849   2.1757   2.9850   3.3105   4.2587

     occupation numbers 
     0.0104   0.0104   0.0104   0.0104   0.0000   0.0000   0.0000   0.0000

          k = 0.1562-0.0902 0.0000 (  5960 PWs)   bands (ev):

   -21.2753  -9.2732  -7.4182  -6.4065   1.7352   2.5405   2.8589   3.8131

     occupation numbers 
     0.0104   0.0104   0.0104   0.0104   0.0000   0.0000   0.0000   0.0000

          k = 0.2188 0.3789 0.0000 (  6034 PWs)   bands (ev):

   -18.5301 -11.8857 -10.3898  -6.1082   1.8040   5.5540   6.3487   6.7933

     occupation numbers 
     0.0104   0.0104   0.0104   0.0104   0.0000   0.0000   0.0000   0.0000

          k = 0.2188 0.4511 0.0000 (  6026 PWs)   bands (ev):

   -17.5386 -13.0339 -11.1158  -5.0423   0.4750   6.9686   7.6575   8.2741

     occupation numbers 
     0.0104   0.0104   0.0104   0.0104   0.0000   0.0000   0.0000   0.0000

          k = 0.2188 0.5232 0.0000 (  6048 PWs)   bands (ev):

   -16.4441 -14.2995 -11.4597  -4.0141  -0.7094   8.5732   8.6949   9.1467

     occupation numbers 
     0.0104   0.0104   0.0104   0.0104   0.0000   0.0000   0.0000   0.0000

          k = 0.2188 0.5954 0.0000 (  6056 PWs)   bands (ev):

   -15.9586 -14.8260 -11.5238  -3.6879  -1.0679   8.8711   9.0723   9.4648

     occupation numbers 
     0.0104   0.0104   0.0104   0.0104   0.0000   0.0000   0.0000   0.0000

          k = 0.2188 0.6676 0.0000 (  6040 PWs)   bands (ev):

   -16.9971 -13.6710 -11.3272  -4.5025  -0.1575   7.7537   8.2682   9.0973

     occupation numbers 
     0.0104   0.0104   0.0104   0.0104   0.0000   0.0000   0.0000   0.0000

          k = 0.2188-0.4150 0.0000 (  6052 PWs)   bands (ev):

   -18.0517 -12.4284 -10.8085  -5.5850   1.1370   6.2336   6.9953   7.5019

     occupation numbers 
     0.0104   0.0104   0.0104   0.0104   0.0000   0.0000   0.0000   0.0000

          k = 0.2188-0.3428 0.0000 (  6038 PWs)   bands (ev):

   -18.9704 -11.4127  -9.8689  -6.6002   2.4618   4.9327   5.7436   6.1486

     occupation numbers 
     0.0104   0.0104   0.0104   0.0104   0.0000   0.0000   0.0000   0.0000

          k = 0.2188-0.2706 0.0000 (  6015 PWs)   bands (ev):

   -19.7287 -10.5796  -8.6985  -7.4646   3.7116   3.8704   4.7000   5.0522

     occupation numbers 
     0.0104   0.0104   0.0104   0.0104   0.0000   0.0000   0.0000   0.0000

          k = 0.2188-0.1985 0.0000 (  6006 PWs)   bands (ev):

   -20.3158  -9.7630  -8.1449  -7.6735   3.0545   3.8609   4.2134   4.8471

     occupation numbers 
     0.0104   0.0104   0.0104   0.0104   0.0000   0.0000   0.0000   0.0000

          k = 0.2188-0.1263 0.0000 (  5984 PWs)   bands (ev):

   -20.7255  -8.9402  -8.6240  -7.0760   2.4892   3.3002   3.6329   4.5728

     occupation numbers 
     0.0104   0.0104   0.0104   0.0104   0.0000   0.0000   0.0000   0.0000

          k = 0.2812 0.4871 0.0000 (  6042 PWs)   bands (ev):

   -16.5097 -13.7129 -12.1208  -3.9695  -0.6490   8.4376   8.4621   9.8792

     occupation numbers 
     0.0104   0.0104   0.0104   0.0104   0.0000   0.0000   0.0000   0.0000

          k = 0.2812 0.5593 0.0000 (  6073 PWs)   bands (ev):

   -15.4927 -14.5967 -12.5470  -3.0432  -1.5919   8.4589  10.0053  10.4883

     occupation numbers 
     0.0104   0.0104   0.0104   0.0104   0.0000   0.0000   0.0000   0.0000

          k = 0.2812 0.6315 0.0000 (  6068 PWs)   bands (ev):

   -15.9731 -14.1541 -12.4107  -3.4466  -1.1834   8.4812   9.2528  10.5908

     occupation numbers 
     0.0104   0.0104   0.0104   0.0104   0.0000   0.0000   0.0000   0.0000

          k = 0.2812 0.7036 0.0000 (  6038 PWs)   bands (ev):

   -17.0368 -13.3445 -11.6763  -4.5117  -0.0869   7.6940   8.1644   9.0458

     occupation numbers 
     0.0104   0.0104   0.0104   0.0104   0.0000   0.0000   0.0000   0.0000

          k = 0.2812-0.3789 0.0000 (  6036 PWs)   bands (ev):

   -18.0084 -12.7352 -10.5042  -5.5510   1.0335   6.2947   7.0703   7.5657

     occupation numbers 
     0.0104   0.0104   0.0104   0.0104   0.0000   0.0000   0.0000   0.0000

          k = 0.2812-0.3067 0.0000 (  6028 PWs)   bands (ev):

   -18.8370 -12.1074  -9.2734  -6.4656   2.1144   5.1169   5.9501   6.3402

     occupation numbers 
     0.0104   0.0104   0.0104   0.0104   0.0000   0.0000   0.0000   0.0000

          k = 0.2812-0.2345 0.0000 (  6017 PWs)   bands (ev):

   -19.5037 -11.3858  -8.2619  -7.2163   3.1384   4.1793   5.0324   5.3723

     occupation numbers 
     0.0104   0.0104   0.0104   0.0104   0.0000   0.0000   0.0000   0.0000

          k = 0.2812-0.1624 0.0000 (  6006 PWs)   bands (ev):

   -19.9985 -10.5809  -7.7806  -7.6996   3.4913   4.0066   4.4135   4.6640

     occupation numbers 
     0.0104   0.0104   0.0104   0.0104   0.0000   0.0000   0.0000   0.0000

          k = 0.3438 0.5954 0.0000 (  6058 PWs)   bands (ev):

   -15.1131 -14.7474 -12.8658  -2.5887  -2.0228   8.3536  10.4858  10.6097

     occupation numbers 
     0.0104   0.0104   0.0104   0.0104   0.0000   0.0000   0.0000   0.0000

          k = 0.3438 0.6676 0.0000 (  6057 PWs)   bands (ev):

   -15.9606 -14.4507 -12.0491  -3.5323  -1.1415   8.6190   9.3053   9.9340

     occupation numbers 
     0.0104   0.0104   0.0104   0.0104   0.0000   0.0000   0.0000   0.0000

          k = 0.3438 0.7397 0.0000 (  6046 PWs)   bands (ev):

   -16.9201 -14.1080 -10.8489  -4.4932  -0.2725   7.8625   8.3186   8.4606

     occupation numbers 
     0.0104   0.0104   0.0104   0.0104   0.0000   0.0000   0.0000   0.0000

          k = 0.3438-0.3428 0.0000 (  6031 PWs)   bands (ev):

   -17.7938 -13.6229  -9.6576  -5.3855   0.5890   6.5594   6.8382   7.4261

     occupation numbers 
     0.0104   0.0104   0.0104   0.0104   0.0000   0.0000   0.0000   0.0000

          k = 0.3438-0.2706 0.0000 (  6024 PWs)   bands (ev):

   -18.5281 -12.9902  -8.7054  -6.1583   1.4647   5.5005   5.8065   6.4112

     occupation numbers 
     0.0104   0.0104   0.0104   0.0104   0.0000   0.0000   0.0000   0.0000

          k = 0.3438-0.1985 0.0000 (  6026 PWs)   bands (ev):

   -19.1016 -12.2294  -8.2087  -6.7764   2.3398   4.7275   5.4513   5.6039

     occupation numbers 
     0.0104   0.0104   0.0104   0.0104   0.0000   0.0000   0.0000   0.0000

          k = 0.4062 0.7036 0.0000 (  6044 PWs)   bands (ev):

   -16.0556 -15.0765 -10.9596  -3.9185  -0.9335   8.2373   9.1629   9.5365

     occupation numbers 
     0.0104   0.0104   0.0104   0.0104   0.0000   0.0000   0.0000   0.0000

          k = 0.4062 0.7758 0.0000 (  6040 PWs)   bands (ev):

   -16.6775 -14.9877  -9.8505  -4.4931  -0.5401   6.6883   8.3218   9.0361

     occupation numbers 
     0.0104   0.0104   0.0104   0.0104   0.0000   0.0000   0.0000   0.0000

          k = 0.4062-0.3067 0.0000 (  6034 PWs)   bands (ev):

   -17.4183 -14.4947  -8.9797  -5.1210   0.0269   5.6051   7.1770   8.0249

     occupation numbers 
     0.0104   0.0104   0.0104   0.0104   0.0000   0.0000   0.0000   0.0000

          k = 0.4062-0.2345 0.0000 (  6026 PWs)   bands (ev):

   -18.0502 -13.8094  -8.5649  -5.6978   0.7225   5.2447   6.2598   7.1094

     occupation numbers 
     0.0104   0.0104   0.0104   0.0104   0.0000   0.0000   0.0000   0.0000

          k = 0.4688 0.8119 0.0000 (  6046 PWs)   bands (ev):

   -16.5288 -15.5185  -9.0724  -4.5928  -0.6395   5.5621   8.9161   9.0755

     occupation numbers 
     0.0104   0.0104   0.0104   0.0104   0.0000   0.0000   0.0000   0.0000

          k = 0.4688-0.2706 0.0000 (  6030 PWs)   bands (ev):

   -16.9205 -15.2108  -8.7474  -4.8245  -0.4352   5.1631   7.9706   8.8422

     occupation numbers 
     0.0104   0.0104   0.0104   0.0104   0.0000   0.0000   0.0000   0.0000

          k = 0.0625-0.0000 0.0000 (  5971 PWs)   bands (ev):

   -21.7824  -9.8781  -5.6493  -5.5404   1.0433   1.8402   2.1494   3.1111

     occupation numbers 
     0.0052   0.0052   0.0052   0.0052   0.0000   0.0000   0.0000   0.0000

          k =-0.0937 0.0902 0.0000 (  5973 PWs)   bands (ev):

   -21.5515  -9.6020  -6.4994  -5.9891   1.3578   2.1588   2.4719   3.4305

     occupation numbers 
     0.0104   0.0104   0.0104   0.0104   0.0000   0.0000   0.0000   0.0000

          k = 0.1250 0.0361 0.0000 (  5973 PWs)   bands (ev):

   -21.5515  -9.6021  -6.4939  -5.9948   1.3578   2.1588   2.4719   3.4304

     occupation numbers 
     0.0104   0.0104   0.0104   0.0104   0.0000   0.0000   0.0000   0.0000

          k =-0.1562 0.1263 0.0000 (  5959 PWs)   bands (ev):

   -21.1375  -9.1097  -7.7998  -6.6343   1.9239   2.7311   3.0525   4.0041

     occupation numbers 
     0.0104   0.0104   0.0104   0.0104   0.0000   0.0000   0.0000   0.0000

          k = 0.1875 0.0722 0.0000 (  5959 PWs)   bands (ev):

   -21.1375  -9.1097  -7.7974  -6.6369   1.9239   2.7311   3.0524   4.0041

     occupation numbers 
     0.0104   0.0104   0.0104   0.0104   0.0000   0.0000   0.0000   0.0000

          k =-0.2188 0.1624 0.0000 (  5992 PWs)   bands (ev):

   -20.5431  -9.3490  -8.4103  -7.3092   2.7404   3.5510   3.8909   4.8170

     occupation numbers 
     0.0104   0.0104   0.0104   0.0104   0.0000   0.0000   0.0000   0.0000

          k = 0.2500 0.1083 0.0000 (  5992 PWs)   bands (ev):

   -20.5431  -9.3480  -8.4104  -7.3104   2.7404   3.5510   3.8909   4.8170

     occupation numbers 
     0.0104   0.0104   0.0104   0.0104   0.0000   0.0000   0.0000   0.0000

          k =-0.2812 0.1985 0.0000 (  6016 PWs)   bands (ev):

   -19.7730 -10.9911  -7.9135  -7.5227   3.6119   3.8038   4.6696   4.9858

     occupation numbers 
     0.0104   0.0104   0.0104   0.0104   0.0000   0.0000   0.0000   0.0000

          k = 0.3125 0.1443 0.0000 (  6016 PWs)   bands (ev):

   -19.7730 -10.9906  -7.9141  -7.5229   3.6127   3.8038   4.6696   4.9858

     occupation numbers 
     0.0104   0.0104   0.0104   0.0104   0.0000   0.0000   0.0000   0.0000

          k =-0.3438 0.2345 0.0000 (  6018 PWs)   bands (ev):

   -18.8357 -12.6238  -8.3893  -6.4884   1.9054   5.0855   5.5253   5.9788

     occupation numbers 
     0.0104   0.0104   0.0104   0.0104   0.0000   0.0000   0.0000   0.0000

          k = 0.3750 0.1804 0.0000 (  6018 PWs)   bands (ev):

   -18.8357 -12.6236  -8.3895  -6.4886   1.9060   5.0852   5.5249   5.9788

     occupation numbers 
     0.0104   0.0104   0.0104   0.0104   0.0000   0.0000   0.0000   0.0000

          k =-0.4062 0.2706 0.0000 (  6026 PWs)   bands (ev):

   -17.7519 -14.1719  -8.7043  -5.4206   0.3626   5.3230   6.6879   7.5426

     occupation numbers 
     0.0104   0.0104   0.0104   0.0104   0.0000   0.0000   0.0000   0.0000

          k = 0.4375 0.2165 0.0000 (  6026 PWs)   bands (ev):

   -17.7519 -14.1718  -8.7044  -5.4208   0.3630   5.3227   6.6879   7.5425

     occupation numbers 
     0.0104   0.0104   0.0104   0.0104   0.0000   0.0000   0.0000   0.0000

          k =-0.4687 0.3067 0.0000 (  6032 PWs)   bands (ev):

   -16.6753 -15.4521  -8.8420  -4.6944  -0.5763   5.2594   8.4522   9.4228

     occupation numbers 
     0.0104   0.0104   0.0104   0.0104   0.0000   0.0000   0.0000   0.0000

          k = 0.5000 0.2526 0.0000 (  6032 PWs)   bands (ev):

   -16.6753 -15.4521  -8.8420  -4.6944  -0.5762   5.2593   8.4522   9.4234

     occupation numbers 
     0.0104   0.0104   0.0104   0.0104   0.0000   0.0000   0.0000   0.0000

          k = 0.4688-0.2345 0.0000 (  6026 PWs)   bands (ev):

   -17.1793 -14.8799  -8.7960  -4.9712  -0.2279   5.2812   7.5440   8.4080

     occupation numbers 
     0.0104   0.0104   0.0104   0.0104   0.0000   0.0000   0.0000   0.0000

          k =-0.4375-0.2887 0.0000 (  6026 PWs)   bands (ev):

   -17.1793 -14.8799  -8.7959  -4.9710  -0.2282   5.2814   7.5440   8.4081

     occupation numbers 
     0.0104   0.0104   0.0104   0.0104   0.0000   0.0000   0.0000   0.0000

          k = 0.4062-0.1985 0.0000 (  6014 PWs)   bands (ev):

   -18.3096 -13.4131  -8.5684  -5.9456   1.0952   5.3696   5.9028   6.7313

     occupation numbers 
     0.0104   0.0104   0.0104   0.0104   0.0000   0.0000   0.0000   0.0000

          k =-0.3750-0.2526 0.0000 (  6014 PWs)   bands (ev):

   -18.3096 -13.4133  -8.5682  -5.9454   1.0947   5.3701   5.9027   6.7314

     occupation numbers 
     0.0104   0.0104   0.0104   0.0104   0.0000   0.0000   0.0000   0.0000

          k = 0.3437-0.1624 0.0000 (  6028 PWs)   bands (ev):

   -19.3244 -11.8132  -8.1703  -7.0198   2.7567   4.4244   5.2882   5.5699

     occupation numbers 
     0.0104   0.0104   0.0104   0.0104   0.0000   0.0000   0.0000   0.0000

          k =-0.3125-0.2165 0.0000 (  6028 PWs)   bands (ev):

   -19.3245 -11.8136  -8.1699  -7.0196   2.7560   4.4244   5.2883   5.5705

     occupation numbers 
     0.0104   0.0104   0.0104   0.0104   0.0000   0.0000   0.0000   0.0000

          k = 0.2812-0.1263 0.0000 (  6019 PWs)   bands (ev):

   -20.1796 -10.1651  -7.9884  -7.6254   3.2416   4.0209   4.4065   4.5504

     occupation numbers 
     0.0104   0.0104   0.0104   0.0104   0.0000   0.0000   0.0000   0.0000

          k =-0.2500-0.1804 0.0000 (  6019 PWs)   bands (ev):

   -20.1796 -10.1659  -7.9883  -7.6246   3.2416   4.0208   4.4065   4.5497

     occupation numbers 
     0.0104   0.0104   0.0104   0.0104   0.0000   0.0000   0.0000   0.0000

          k = 0.2188-0.0902 0.0000 (  5980 PWs)   bands (ev):

   -20.8626  -8.7851  -8.5530  -6.9773   2.3010   3.1112   3.4394   4.3848

     occupation numbers 
     0.0104   0.0104   0.0104   0.0104   0.0000   0.0000   0.0000   0.0000

          k =-0.1875-0.1443 0.0000 (  5980 PWs)   bands (ev):

   -20.8626  -8.7850  -8.5545  -6.9755   2.3010   3.1112   3.4394   4.3848

     occupation numbers 
     0.0104   0.0104   0.0104   0.0104   0.0000   0.0000   0.0000   0.0000

          k = 0.1562-0.0541 0.0000 (  5962 PWs)   bands (ev):

   -21.3673  -9.3825  -7.1026  -6.3034   1.6095   2.4134   2.7299   3.6857

     occupation numbers 
     0.0104   0.0104   0.0104   0.0104   0.0000   0.0000   0.0000   0.0000

          k =-0.1250-0.1083 0.0000 (  5962 PWs)   bands (ev):

   -21.3673  -9.3824  -7.1062  -6.2996   1.6095   2.4134   2.7299   3.6857

     occupation numbers 
     0.0104   0.0104   0.0104   0.0104   0.0000   0.0000   0.0000   0.0000

          k = 0.0937-0.0180 0.0000 (  5958 PWs)   bands (ev):

   -21.6900  -9.7675  -5.9999  -5.7327   1.1691   1.9677   2.2784   3.2389

     occupation numbers 
     0.0104   0.0104   0.0104   0.0104   0.0000   0.0000   0.0000   0.0000

          k =-0.0625-0.0722 0.0000 (  5958 PWs)   bands (ev):

   -21.6900  -9.7674  -6.0085  -5.7240   1.1691   1.9677   2.2784   3.2389

     occupation numbers 
     0.0104   0.0104   0.0104   0.0104   0.0000   0.0000   0.0000   0.0000

          k = 0.0000-0.0361 0.0000 (  5949 PWs)   bands (ev):

   -21.8286  -9.9335  -5.4834  -5.4215   0.9804   1.7765   2.0849   3.0472

     occupation numbers 
     0.0052   0.0052   0.0052   0.0052   0.0000   0.0000   0.0000   0.0000

          k = 0.1875-0.0000 0.0000 (  5962 PWs)   bands (ev):

   -21.2293  -9.2186  -7.4087  -6.6532   1.7984   2.6043   2.9235   3.8771

     occupation numbers 
     0.0052   0.0052   0.0052   0.0052   0.0000   0.0000   0.0000   0.0000

          k =-0.1562 0.1985 0.0000 (  5982 PWs)   bands (ev):

   -20.7257  -8.6778  -8.6230  -7.4315   2.4902   3.3020   3.6331   4.5765

     occupation numbers 
     0.0104   0.0104   0.0104   0.0104   0.0000   0.0000   0.0000   0.0000

          k = 0.2500 0.0361 0.0000 (  5982 PWs)   bands (ev):

   -20.7256  -8.6718  -8.6234  -7.4381   2.4902   3.3020   3.6331   4.5765

     occupation numbers 
     0.0104   0.0104   0.0104   0.0104   0.0000   0.0000   0.0000   0.0000

          k =-0.2188 0.2345 0.0000 (  6013 PWs)   bands (ev):

   -20.0441 -10.1737  -8.1474  -7.8291   3.4313   4.1671   4.3911   4.6006

     occupation numbers 
     0.0104   0.0104   0.0104   0.0104   0.0000   0.0000   0.0000   0.0000

          k = 0.3125 0.0722 0.0000 (  6013 PWs)   bands (ev):

   -20.0440 -10.1710  -8.1505  -7.8295   3.4313   4.1682   4.3923   4.6006

     occupation numbers 
     0.0104   0.0104   0.0104   0.0104   0.0000   0.0000   0.0000   0.0000

          k =-0.2812 0.2706 0.0000 (  6028 PWs)   bands (ev):

   -19.1913 -11.7589  -8.7246  -6.8631   2.6355   4.6173   5.4618   5.8239

     occupation numbers 
     0.0104   0.0104   0.0104   0.0104   0.0000   0.0000   0.0000   0.0000

          k = 0.3750 0.1083 0.0000 (  6028 PWs)   bands (ev):

   -19.1912 -11.7577  -8.7261  -6.8637   2.6376   4.6172   5.4616   5.8238

     occupation numbers 
     0.0104   0.0104   0.0104   0.0104   0.0000   0.0000   0.0000   0.0000

          k =-0.3437 0.3067 0.0000 (  6026 PWs)   bands (ev):

   -18.1801 -13.3242  -9.1372  -5.7893   1.0249   5.9900   6.2565   6.8967

     occupation numbers 
     0.0104   0.0104   0.0104   0.0104   0.0000   0.0000   0.0000   0.0000

          k = 0.4375 0.1443 0.0000 (  6026 PWs)   bands (ev):

   -18.1800 -13.3237  -9.1379  -5.7900   1.0265   5.9888   6.2564   6.8965

     occupation numbers 
     0.0104   0.0104   0.0104   0.0104   0.0000   0.0000   0.0000   0.0000

          k =-0.4062 0.3428 0.0000 (  6029 PWs)   bands (ev):

   -17.0557 -14.7709  -9.3708  -4.8079  -0.2762   6.0704   7.7234   8.5407

     occupation numbers 
     0.0104   0.0104   0.0104   0.0104   0.0000   0.0000   0.0000   0.0000

          k = 0.5000 0.1804 0.0000 (  6029 PWs)   bands (ev):

   -17.0556 -14.7708  -9.3711  -4.8084  -0.2752   6.0698   7.7236   8.5404

     occupation numbers 
     0.0104   0.0104   0.0104   0.0104   0.0000   0.0000   0.0000   0.0000

          k =-0.4687 0.3789 0.0000 (  6036 PWs)   bands (ev):

   -16.5557 -15.3364  -9.4180  -4.5262  -0.6233   6.0488   8.6237   9.3889

     occupation numbers 
     0.0104   0.0104   0.0104   0.0104   0.0000   0.0000   0.0000   0.0000

          k = 0.5625 0.2165 0.0000 (  6036 PWs)   bands (ev):

   -16.5557 -15.3365  -9.4179  -4.5260  -0.6237   6.0490   8.6235   9.3893

     occupation numbers 
     0.0104   0.0104   0.0104   0.0104   0.0000   0.0000   0.0000   0.0000

          k = 0.4687-0.1624 0.0000 (  6024 PWs)   bands (ev):

   -17.6249 -14.0713  -9.2775  -5.2629   0.3092   6.1060   6.8763   7.6965

     occupation numbers 
     0.0104   0.0104   0.0104   0.0104   0.0000   0.0000   0.0000   0.0000

          k =-0.3750-0.3248 0.0000 (  6024 PWs)   bands (ev):

   -17.6250 -14.0715  -9.2770  -5.2623   0.3079   6.1072   6.8759   7.6968

     occupation numbers 
     0.0104   0.0104   0.0104   0.0104   0.0000   0.0000   0.0000   0.0000

          k = 0.4062-0.1263 0.0000 (  6023 PWs)   bands (ev):

   -18.7041 -12.5487  -8.9536  -6.3333   1.8149   5.2969   6.1500   6.2804

     occupation numbers 
     0.0104   0.0104   0.0104   0.0104   0.0000   0.0000   0.0000   0.0000

          k =-0.3125-0.2887 0.0000 (  6023 PWs)   bands (ev):

   -18.7042 -12.5495  -8.9526  -6.3327   1.8130   5.2971   6.1502   6.2821

     occupation numbers 
     0.0104   0.0104   0.0104   0.0104   0.0000   0.0000   0.0000   0.0000

          k = 0.3438-0.0902 0.0000 (  6005 PWs)   bands (ev):

   -19.6385 -10.9612  -8.4575  -7.3655   3.4679   3.9941   4.8361   5.1806

     occupation numbers 
     0.0104   0.0104   0.0104   0.0104   0.0000   0.0000   0.0000   0.0000

          k =-0.2500-0.2526 0.0000 (  6005 PWs)   bands (ev):

   -19.6386 -10.9630  -8.4553  -7.3650   3.4657   3.9942   4.8363   5.1807

     occupation numbers 
     0.0104   0.0104   0.0104   0.0104   0.0000   0.0000   0.0000   0.0000

          k = 0.2812-0.0541 0.0000 (  5999 PWs)   bands (ev):

   -20.4067  -9.4019  -8.2501  -7.8089   2.9298   3.7423   4.0846   4.9923

     occupation numbers 
     0.0104   0.0104   0.0104   0.0104   0.0000   0.0000   0.0000   0.0000

          k =-0.1875-0.2165 0.0000 (  5999 PWs)   bands (ev):

   -20.4068  -9.4060  -8.2497  -7.8044   2.9298   3.7423   4.0846   4.9917

     occupation numbers 
     0.0104   0.0104   0.0104   0.0104   0.0000   0.0000   0.0000   0.0000

          k = 0.2188-0.0180 0.0000 (  5974 PWs)   bands (ev):

   -20.9999  -8.9468  -8.0012  -7.0469   2.1130   2.9218   3.2460   4.1955

     occupation numbers 
     0.0104   0.0104   0.0104   0.0104   0.0000   0.0000   0.0000   0.0000

          k =-0.1250-0.1804 0.0000 (  5974 PWs)   bands (ev):

   -21.0000  -8.9465  -8.0095  -7.0380   2.1130   2.9219   3.2461   4.1955

     occupation numbers 
     0.0104   0.0104   0.0104   0.0104   0.0000   0.0000   0.0000   0.0000

          k = 0.1562 0.0180 0.0000 (  5949 PWs)   bands (ev):

   -21.4133  -9.4373  -6.9049  -6.2886   1.5466   2.3498   2.6654   3.6219

     occupation numbers 
     0.0104   0.0104   0.0104   0.0104   0.0000   0.0000   0.0000   0.0000

          k =-0.0625-0.1443 0.0000 (  5949 PWs)   bands (ev):

   -21.4134  -9.4371  -6.9173  -6.2755   1.5467   2.3498   2.6654   3.6220

     occupation numbers 
     0.0104   0.0104   0.0104   0.0104   0.0000   0.0000   0.0000   0.0000

          k = 0.0000-0.1083 0.0000 (  5975 PWs)   bands (ev):

   -21.6438  -9.7122  -6.1965  -5.7937   1.2320   2.0314   2.3429   3.3028

     occupation numbers 
     0.0052   0.0052   0.0052   0.0052   0.0000   0.0000   0.0000   0.0000

          k = 0.3125 0.0000 0.0000 (  6014 PWs)   bands (ev):

   -20.1347  -9.7039  -8.4426  -7.9325   3.3069   4.1234   4.4718   4.5696

     occupation numbers 
     0.0052   0.0052   0.0052   0.0052   0.0000   0.0000   0.0000   0.0000

          k =-0.2188 0.3067 0.0000 (  6042 PWs)   bands (ev):

   -19.3704 -10.9868  -9.2878  -7.0539   3.1011   4.3711   5.1912   5.5682

     occupation numbers 
     0.0104   0.0104   0.0104   0.0104   0.0000   0.0000   0.0000   0.0000

          k = 0.3750 0.0361 0.0000 (  6042 PWs)   bands (ev):

   -19.3702 -10.9820  -9.2932  -7.0548   3.1048   4.3710   5.1910   5.5682

     occupation numbers 
     0.0104   0.0104   0.0104   0.0104   0.0000   0.0000   0.0000   0.0000

          k =-0.2812 0.3428 0.0000 (  6043 PWs)   bands (ev):

   -18.4421 -12.4314  -9.8772  -6.0269   1.5798   5.6766   6.4905   6.9210

     occupation numbers 
     0.0104   0.0104   0.0104   0.0104   0.0000   0.0000   0.0000   0.0000

          k = 0.4375 0.0722 0.0000 (  6043 PWs)   bands (ev):

   -18.4419 -12.4293  -9.8797  -6.0280   1.5830   5.6764   6.4902   6.9209

     occupation numbers 
     0.0104   0.0104   0.0104   0.0104   0.0000   0.0000   0.0000   0.0000

          k =-0.3437 0.3789 0.0000 (  6051 PWs)   bands (ev):

   -17.3723 -13.8843 -10.2374  -4.9515   0.1573   7.1885   7.5346   7.9739

     occupation numbers 
     0.0104   0.0104   0.0104   0.0104   0.0000   0.0000   0.0000   0.0000

          k = 0.5000 0.1083 0.0000 (  6051 PWs)   bands (ev):

   -17.3722 -13.8836 -10.2385  -4.9526   0.1597   7.1873   7.5343   7.9732

     occupation numbers 
     0.0104   0.0104   0.0104   0.0104   0.0000   0.0000   0.0000   0.0000

          k =-0.4062 0.4150 0.0000 (  6052 PWs)   bands (ev):

   -16.3172 -15.1145 -10.3898  -4.1909  -0.7603   7.4237   8.9614   9.3090

     occupation numbers 
     0.0104   0.0104   0.0104   0.0104   0.0000   0.0000   0.0000   0.0000

          k = 0.5625 0.1443 0.0000 (  6052 PWs)   bands (ev):

   -16.3172 -15.1143 -10.3899  -4.1913  -0.7596   7.4233   8.9619   9.3083

     occupation numbers 
     0.0104   0.0104   0.0104   0.0104   0.0000   0.0000   0.0000   0.0000

          k =-0.4688 0.4511 0.0000 (  6037 PWs)   bands (ev):

   -16.8096 -14.5626 -10.3396  -4.4868  -0.4108   7.4380   8.0861   8.7213

     occupation numbers 
     0.0104   0.0104   0.0104   0.0104   0.0000   0.0000   0.0000   0.0000

          k = 0.6250 0.1804 0.0000 (  6037 PWs)   bands (ev):

   -16.8097 -14.5630 -10.3390  -4.4859  -0.4125   7.4394   8.0854   8.7222

     occupation numbers 
     0.0104   0.0104   0.0104   0.0104   0.0000   0.0000   0.0000   0.0000

          k = 0.4687-0.0902 0.0000 (  6041 PWs)   bands (ev):

   -17.9220 -13.1644 -10.0857  -5.4845   0.8440   6.4145   7.2153   7.5637

     occupation numbers 
     0.0104   0.0104   0.0104   0.0104   0.0000   0.0000   0.0000   0.0000

          k =-0.3125-0.3608 0.0000 (  6041 PWs)   bands (ev):

   -17.9222 -13.1657 -10.0841  -5.4833   0.8412   6.4148   7.2158   7.5660

     occupation numbers 
     0.0104   0.0104   0.0104   0.0104   0.0000   0.0000   0.0000   0.0000

          k = 0.4062-0.0541 0.0000 (  6026 PWs)   bands (ev):

   -18.9257 -11.6954  -9.6173  -6.5563   2.3437   4.9942   5.8131   6.2128

     occupation numbers 
     0.0104   0.0104   0.0104   0.0104   0.0000   0.0000   0.0000   0.0000

          k =-0.2500-0.3248 0.0000 (  6026 PWs)   bands (ev):

   -18.9259 -11.6986  -9.6136  -6.5552   2.3401   4.9943   5.8134   6.2128

     occupation numbers 
     0.0104   0.0104   0.0104   0.0104   0.0000   0.0000   0.0000   0.0000

          k = 0.3438-0.0180 0.0000 (  6030 PWs)   bands (ev):

   -19.7737 -10.3117  -8.9013  -7.5153   3.8083   3.8509   4.6273   4.9878

     occupation numbers 
     0.0104   0.0104   0.0104   0.0104   0.0000   0.0000   0.0000   0.0000

          k =-0.1875-0.2887 0.0000 (  6030 PWs)   bands (ev):

   -19.7739 -10.3184  -8.8938  -7.5145   3.8084   3.8470   4.6275   4.9879

     occupation numbers 
     0.0104   0.0104   0.0104   0.0104   0.0000   0.0000   0.0000   0.0000

          k = 0.2812 0.0180 0.0000 (  5999 PWs)   bands (ev):

   -20.4522  -9.1620  -8.3026  -7.9397   2.8674   3.6816   4.0202   4.9567

     occupation numbers 
     0.0104   0.0104   0.0104   0.0104   0.0000   0.0000   0.0000   0.0000

          k =-0.1250-0.2526 0.0000 (  5999 PWs)   bands (ev):

   -20.4524  -9.1716  -8.3020  -7.9291   2.8675   3.6817   4.0202   4.9570

     occupation numbers 
     0.0104   0.0104   0.0104   0.0104   0.0000   0.0000   0.0000   0.0000

          k = 0.2188 0.0541 0.0000 (  5985 PWs)   bands (ev):

   -20.9541  -8.8928  -8.2184  -6.9895   2.1756   2.9850   3.3105   4.2587

     occupation numbers 
     0.0104   0.0104   0.0104   0.0104   0.0000   0.0000   0.0000   0.0000

          k =-0.0625-0.2165 0.0000 (  5985 PWs)   bands (ev):

   -20.9542  -8.8924  -8.2284  -6.9784   2.1757   2.9851   3.3105   4.2587

     occupation numbers 
     0.0104   0.0104   0.0104   0.0104   0.0000   0.0000   0.0000   0.0000

          k = 0.0000-0.1804 0.0000 (  5960 PWs)   bands (ev):

   -21.2754  -9.2729  -7.4274  -6.3963   1.7352   2.5406   2.8589   3.8131

     occupation numbers 
     0.0052   0.0052   0.0052   0.0052   0.0000   0.0000   0.0000   0.0000

          k = 0.4375 0.0000 0.0000 (  6034 PWs)   bands (ev):

   -18.5299 -11.8790 -10.3973  -6.1099   1.8089   5.5540   6.3483   6.7932

     occupation numbers 
     0.0052   0.0052   0.0052   0.0052   0.0000   0.0000   0.0000   0.0000

          k =-0.2812 0.4150 0.0000 (  6026 PWs)   bands (ev):

   -17.5386 -13.0311 -11.1188  -5.0433   0.4769   6.9686   7.6574   8.2742

     occupation numbers 
     0.0104   0.0104   0.0104   0.0104   0.0000   0.0000   0.0000   0.0000

          k = 0.5000 0.0361 0.0000 (  6026 PWs)   bands (ev):

   -17.5385 -13.0276 -11.1229  -5.0452   0.4812   6.9685   7.6564   8.2740

     occupation numbers 
     0.0104   0.0104   0.0104   0.0104   0.0000   0.0000   0.0000   0.0000

          k =-0.3438 0.4511 0.0000 (  6048 PWs)   bands (ev):

   -16.4449 -14.2950 -11.4640  -4.0175  -0.7041   8.5738   8.6940   9.1433

     occupation numbers 
     0.0104   0.0104   0.0104   0.0104   0.0000   0.0000   0.0000   0.0000

          k = 0.5625 0.0722 0.0000 (  6048 PWs)   bands (ev):

   -16.4450 -14.2937 -11.4654  -4.0192  -0.7013   8.5728   8.6923   9.1437

     occupation numbers 
     0.0104   0.0104   0.0104   0.0104   0.0000   0.0000   0.0000   0.0000

          k =-0.4062 0.4871 0.0000 (  6056 PWs)   bands (ev):

   -15.9615 -14.8186 -11.5288  -3.6941  -1.0591   8.8685   9.0692   9.4653

     occupation numbers 
     0.0104   0.0104   0.0104   0.0104   0.0000   0.0000   0.0000   0.0000

          k = 0.6250 0.1083 0.0000 (  6056 PWs)   bands (ev):

   -15.9614 -14.8191 -11.5284  -3.6933  -1.0602   8.8692   9.0709   9.4629

     occupation numbers 
     0.0104   0.0104   0.0104   0.0104   0.0000   0.0000   0.0000   0.0000

          k =-0.4688 0.5232 0.0000 (  6040 PWs)   bands (ev):

   -16.9973 -13.6653 -11.3335  -4.5064  -0.1504   7.7536   8.2664   9.0964

     occupation numbers 
     0.0104   0.0104   0.0104   0.0104   0.0000   0.0000   0.0000   0.0000

          k = 0.6875 0.1443 0.0000 (  6040 PWs)   bands (ev):

   -16.9974 -13.6674 -11.3310  -4.5044  -0.1541   7.7539   8.2679   9.0973

     occupation numbers 
     0.0104   0.0104   0.0104   0.0104   0.0000   0.0000   0.0000   0.0000

          k = 0.4687-0.0180 0.0000 (  6052 PWs)   bands (ev):

   -18.0515 -12.4217 -10.8161  -5.5872   1.1426   6.2335   6.9947   7.5019

     occupation numbers 
     0.0104   0.0104   0.0104   0.0104   0.0000   0.0000   0.0000   0.0000

          k =-0.2500-0.3969 0.0000 (  6052 PWs)   bands (ev):

   -18.0517 -12.4268 -10.8103  -5.5853   1.1379   6.2336   6.9953   7.5019

     occupation numbers 
     0.0104   0.0104   0.0104   0.0104   0.0000   0.0000   0.0000   0.0000

          k = 0.4062 0.0180 0.0000 (  6038 PWs)   bands (ev):

   -18.9702 -11.4068  -9.8755  -6.6015   2.4661   4.9326   5.7433   6.1486

     occupation numbers 
     0.0104   0.0104   0.0104   0.0104   0.0000   0.0000   0.0000   0.0000

          k =-0.1875-0.3608 0.0000 (  6038 PWs)   bands (ev):

   -18.9704 -11.4144  -9.8670  -6.6000   2.4611   4.9327   5.7435   6.1486

     occupation numbers 
     0.0104   0.0104   0.0104   0.0104   0.0000   0.0000   0.0000   0.0000

          k = 0.3438 0.0541 0.0000 (  6015 PWs)   bands (ev):

   -19.7286 -10.5759  -8.7027  -7.4653   3.7148   3.8703   4.6998   5.0522

     occupation numbers 
     0.0104   0.0104   0.0104   0.0104   0.0000   0.0000   0.0000   0.0000

          k =-0.1250-0.3248 0.0000 (  6015 PWs)   bands (ev):

   -19.7288 -10.5835  -8.6938  -7.4642   3.7101   3.8704   4.6997   5.0522

     occupation numbers 
     0.0104   0.0104   0.0104   0.0104   0.0000   0.0000   0.0000   0.0000

          k = 0.2812 0.0902 0.0000 (  6006 PWs)   bands (ev):

   -20.3157  -9.7611  -8.1451  -7.6757   3.0545   3.8610   4.2134   4.8486

     occupation numbers 
     0.0104   0.0104   0.0104   0.0104   0.0000   0.0000   0.0000   0.0000

          k =-0.0625-0.2887 0.0000 (  6006 PWs)   bands (ev):

   -20.3159  -9.7685  -8.1444  -7.6667   3.0545   3.8612   4.2134   4.8451

     occupation numbers 
     0.0104   0.0104   0.0104   0.0104   0.0000   0.0000   0.0000   0.0000

          k = 0.0000-0.2526 0.0000 (  5984 PWs)   bands (ev):

   -20.7256  -8.9475  -8.6235  -7.0674   2.4892   3.3003   3.6329   4.5730

     occupation numbers 
     0.0052   0.0052   0.0052   0.0052   0.0000   0.0000   0.0000   0.0000

          k = 0.5625 0.0000 0.0000 (  6042 PWs)   bands (ev):

   -16.5100 -13.7075 -12.1262  -3.9729  -0.6435   8.4352   8.4620   9.8791

     occupation numbers 
     0.0052   0.0052   0.0052   0.0052   0.0000   0.0000   0.0000   0.0000

          k =-0.3438 0.5232 0.0000 (  6073 PWs)   bands (ev):

   -15.4953 -14.5912 -12.5503  -3.0476  -1.5865   8.4579  10.0059  10.4861

     occupation numbers 
     0.0104   0.0104   0.0104   0.0104   0.0000   0.0000   0.0000   0.0000

          k = 0.6250 0.0361 0.0000 (  6073 PWs)   bands (ev):

   -15.4960 -14.5894 -12.5514  -3.0495  -1.5842   8.4573  10.0041  10.4926

     occupation numbers 
     0.0104   0.0104   0.0104   0.0104   0.0000   0.0000   0.0000   0.0000

          k =-0.4062 0.5593 0.0000 (  6068 PWs)   bands (ev):

   -15.9742 -14.1482 -12.4159  -3.4513  -1.1768   8.4790   9.2526  10.5935

     occupation numbers 
     0.0104   0.0104   0.0104   0.0104   0.0000   0.0000   0.0000   0.0000

          k = 0.6875 0.0722 0.0000 (  6068 PWs)   bands (ev):

   -15.9736 -14.1520 -12.4125  -3.4480  -1.1815   8.4808   9.2529  10.5891

     occupation numbers 
     0.0104   0.0104   0.0104   0.0104   0.0000   0.0000   0.0000   0.0000

          k =-0.4687 0.5954 0.0000 (  6038 PWs)   bands (ev):

   -17.0367 -13.3401 -11.6812  -4.5143  -0.0820   7.6939   8.1626   9.0457

     occupation numbers 
     0.0104   0.0104   0.0104   0.0104   0.0000   0.0000   0.0000   0.0000

          k = 0.7500 0.1083 0.0000 (  6038 PWs)   bands (ev):

   -17.0367 -13.3462 -11.6746  -4.5110  -0.0880   7.6940   8.1645   9.0457

     occupation numbers 
     0.0104   0.0104   0.0104   0.0104   0.0000   0.0000   0.0000   0.0000

          k = 0.4687 0.0541 0.0000 (  6036 PWs)   bands (ev):

   -18.0082 -12.7325 -10.5074  -5.5525   1.0373   6.2946   7.0697   7.5656

     occupation numbers 
     0.0104   0.0104   0.0104   0.0104   0.0000   0.0000   0.0000   0.0000

          k =-0.1875-0.4330 0.0000 (  6036 PWs)   bands (ev):

   -18.0084 -12.7385 -10.5003  -5.5499   1.0310   6.2946   7.0703   7.5657

     occupation numbers 
     0.0104   0.0104   0.0104   0.0104   0.0000   0.0000   0.0000   0.0000

          k = 0.4062 0.0902 0.0000 (  6028 PWs)   bands (ev):

   -18.8368 -12.1058  -9.2753  -6.4664   2.1171   5.1167   5.9499   6.3402

     occupation numbers 
     0.0104   0.0104   0.0104   0.0104   0.0000   0.0000   0.0000   0.0000

          k =-0.1250-0.3969 0.0000 (  6028 PWs)   bands (ev):

   -18.8371 -12.1115  -9.2681  -6.4645   2.1113   5.1168   5.9500   6.3402

     occupation numbers 
     0.0104   0.0104   0.0104   0.0104   0.0000   0.0000   0.0000   0.0000

          k = 0.3438 0.1263 0.0000 (  6017 PWs)   bands (ev):

   -19.5036 -11.3850  -8.2629  -7.2166   3.1399   4.1792   5.0324   5.3723

     occupation numbers 
     0.0104   0.0104   0.0104   0.0104   0.0000   0.0000   0.0000   0.0000

          k =-0.0625-0.3608 0.0000 (  6017 PWs)   bands (ev):

   -19.5039 -11.3906  -8.2555  -7.2152   3.1350   4.1793   5.0322   5.3723

     occupation numbers 
     0.0104   0.0104   0.0104   0.0104   0.0000   0.0000   0.0000   0.0000

          k = 0.0000-0.3248 0.0000 (  6006 PWs)   bands (ev):

   -19.9987 -10.5866  -7.7796  -7.6921   3.4913   4.0046   4.4116   4.6640

     occupation numbers 
     0.0052   0.0052   0.0052   0.0052   0.0000   0.0000   0.0000   0.0000

          k = 0.6875-0.0000 0.0000 (  6058 PWs)   bands (ev):

   -15.1087 -14.7536 -12.8639  -2.5828  -2.0293   8.3542  10.4893  10.6046

     occupation numbers 
     0.0052   0.0052   0.0052   0.0052   0.0000   0.0000   0.0000   0.0000

          k =-0.4062 0.6315 0.0000 (  6057 PWs)   bands (ev):

   -15.9610 -14.4491 -12.0505  -3.5343  -1.1388   8.6177   9.3041   9.9364

     occupation numbers 
     0.0104   0.0104   0.0104   0.0104   0.0000   0.0000   0.0000   0.0000

          k = 0.7500 0.0361 0.0000 (  6057 PWs)   bands (ev):

   -15.9592 -14.4557 -12.0452  -3.5285  -1.1468   8.6202   9.3046   9.9375

     occupation numbers 
     0.0104   0.0104   0.0104   0.0104   0.0000   0.0000   0.0000   0.0000

          k =-0.4688 0.6676 0.0000 (  6046 PWs)   bands (ev):

   -16.9201 -14.1070 -10.8501  -4.4947  -0.2698   7.8615   8.3184   8.4594

     occupation numbers 
     0.0104   0.0104   0.0104   0.0104   0.0000   0.0000   0.0000   0.0000

          k = 0.8125 0.0722 0.0000 (  6046 PWs)   bands (ev):

   -16.9197 -14.1122 -10.8443  -4.4901  -0.2778   7.8620   8.3219   8.4610

     occupation numbers 
     0.0104   0.0104   0.0104   0.0104   0.0000   0.0000   0.0000   0.0000

          k = 0.4687 0.1263 0.0000 (  6031 PWs)   bands (ev):

   -17.7937 -13.6222  -9.6584  -5.3864   0.5910   6.5580   6.8381   7.4258

     occupation numbers 
     0.0104   0.0104   0.0104   0.0104   0.0000   0.0000   0.0000   0.0000

          k =-0.1250-0.4691 0.0000 (  6031 PWs)   bands (ev):

   -17.7938 -13.6270  -9.6523  -5.3829   0.5836   6.5593   6.8410   7.4261

     occupation numbers 
     0.0104   0.0104   0.0104   0.0104   0.0000   0.0000   0.0000   0.0000

          k = 0.4062 0.1624 0.0000 (  6024 PWs)   bands (ev):

   -18.5280 -12.9898  -8.7059  -6.1587   1.4659   5.4998   5.8062   6.4110

     occupation numbers 
     0.0104   0.0104   0.0104   0.0104   0.0000   0.0000   0.0000   0.0000

          k =-0.0625-0.4330 0.0000 (  6024 PWs)   bands (ev):

   -18.5282 -12.9944  -8.6994  -6.1562   1.4595   5.5009   5.8090   6.4110

     occupation numbers 
     0.0104   0.0104   0.0104   0.0104   0.0000   0.0000   0.0000   0.0000

          k = 0.0000-0.3969 0.0000 (  6026 PWs)   bands (ev):

   -19.1018 -12.2341  -8.2020  -6.7746   2.3347   4.7276   5.4546   5.6037

     occupation numbers 
     0.0052   0.0052   0.0052   0.0052   0.0000   0.0000   0.0000   0.0000

          k = 0.8125-0.0000 0.0000 (  6044 PWs)   bands (ev):

   -16.0518 -15.0844 -10.9546  -3.9124  -0.9426   8.2403   9.1652   9.5375

     occupation numbers 
     0.0052   0.0052   0.0052   0.0052   0.0000   0.0000   0.0000   0.0000

          k =-0.4688 0.7397 0.0000 (  6040 PWs)   bands (ev):

   -16.6774 -14.9876  -9.8508  -4.4936  -0.5392   6.6878   8.3222   9.0355

     occupation numbers 
     0.0104   0.0104   0.0104   0.0104   0.0000   0.0000   0.0000   0.0000

          k = 0.8750 0.0361 0.0000 (  6040 PWs)   bands (ev):

   -16.6760 -14.9932  -9.8452  -4.4878  -0.5487   6.6911   8.3219   9.0363

     occupation numbers 
     0.0104   0.0104   0.0104   0.0104   0.0000   0.0000   0.0000   0.0000

          k = 0.4687 0.1985 0.0000 (  6034 PWs)   bands (ev):

   -17.4182 -14.4946  -8.9799  -5.1213   0.0277   5.6046   7.1772   8.0247

     occupation numbers 
     0.0104   0.0104   0.0104   0.0104   0.0000   0.0000   0.0000   0.0000

          k =-0.0625-0.5052 0.0000 (  6034 PWs)   bands (ev):

   -17.4180 -14.4992  -8.9738  -5.1168   0.0192   5.6077   7.1770   8.0249

     occupation numbers 
     0.0104   0.0104   0.0104   0.0104   0.0000   0.0000   0.0000   0.0000

          k = 0.0000-0.4691 0.0000 (  6026 PWs)   bands (ev):

   -18.0502 -13.8136  -8.5586  -5.6946   0.7155   5.2476   6.2597   7.1093

     occupation numbers 
     0.0052   0.0052   0.0052   0.0052   0.0000   0.0000   0.0000   0.0000

          k = 0.9375 0.0000 0.0000 (  6046 PWs)   bands (ev):

   -16.5254 -15.5259  -9.0666  -4.5865  -0.6495   5.5648   8.9167   9.0743

     occupation numbers 
     0.0052   0.0052   0.0052   0.0052   0.0000   0.0000   0.0000   0.0000

          k = 0.0000-0.5413 0.0000 (  6030 PWs)   bands (ev):

   -16.9192 -15.2162  -8.7413  -4.8188  -0.4447   5.1657   7.9705   8.8423

     occupation numbers 
     0.0052   0.0052   0.0052   0.0052   0.0000   0.0000   0.0000   0.0000

     the Fermi energy is    -2.3059 ev

!    total energy              =     -22.79110533 Ry
     Harris-Foulkes estimate   =     -22.79110533 Ry
     estimated scf accuracy    <          1.9E-13 Ry

     The total energy is the sum of the following terms:

     one-electron contribution =    -221.03614955 Ry
     hartree contribution      =     111.71728617 Ry
     xc contribution           =      -7.02561641 Ry
     ewald contribution        =      93.55337447 Ry
     smearing contrib. (-TS)   =       0.00000000 Ry

     convergence has been achieved in  11 iterations

     Forces acting on atoms (Ry/au):

     atom    1 type  1   force =     0.00000000   -0.00119976    0.00000000
     atom    2 type  1   force =     0.00000000    0.00119976    0.00000000
     The non-local contrib.  to forces
     atom    1 type  1   force =     0.00000000   -0.00042207    0.00000000
     atom    2 type  1   force =     0.00000000    0.00035807    0.00000000
     The ionic contribution  to forces
     atom    1 type  1   force =     0.00000000   -0.00406423    0.00000000
     atom    2 type  1   force =    -0.00000000    0.00406423   -0.00000000
     The local contribution  to forces
     atom    1 type  1   force =     0.00000000    0.00325591    0.00000000
     atom    2 type  1   force =    -0.00000000   -0.00325328    0.00000000
     The core correction contribution to forces
     atom    1 type  1   force =     0.00000000    0.00000000    0.00000000
     atom    2 type  1   force =     0.00000000    0.00000000    0.00000000
     The Hubbard contrib.    to forces
     atom    1 type  1   force =     0.00000000    0.00000000    0.00000000
     atom    2 type  1   force =     0.00000000    0.00000000    0.00000000
     The SCF correction term to forces
     atom    1 type  1   force =     0.00000000    0.00000002    0.00000000
     atom    2 type  1   force =     0.00000000    0.00000013    0.00000000

     Total force =     0.001697     Total SCF correction =     0.000000


     entering subroutine stress ...

          total   stress  (Ry/bohr**3)                   (kbar)     P=        1.24
   0.00001201   0.00000000   0.00000000          1.77      0.00      0.00
   0.00000000   0.00001346   0.00000000          0.00      1.98      0.00
   0.00000000   0.00000000  -0.00000025          0.00      0.00     -0.04

     kinetic stress (kbar)   1808.41      0.00      0.00
                                0.00   1807.76      0.00
                                0.00      0.00   2091.45

     local   stress (kbar) -48656.28      0.00      0.00
                                0.00 -48660.02      0.00
                                0.00      0.00  49859.97

     nonloc. stress (kbar)    -79.77      0.00      0.00
                                0.00    -79.70      0.00
                                0.00      0.00    -78.77

     hartree stress (kbar)  23432.52      0.00      0.00
                                0.00  23433.06     -0.00
                                0.00     -0.00 -23258.15

     exc-cor stress (kbar)   -456.10     -0.00      0.00
                               -0.00   -456.08      0.00
                                0.00      0.00   -473.72

     corecor stress (kbar)      0.00      0.00      0.00
                                0.00      0.00      0.00
                                0.00      0.00      0.00

     ewald   stress (kbar)  23952.98      0.00      0.00
                                0.00  23956.98      0.00
                                0.00      0.00 -28140.82

     hubbard stress (kbar)      0.00      0.00      0.00
                                0.00      0.00      0.00
                                0.00      0.00      0.00

     london  stress (kbar)      0.00      0.00      0.00
                                0.00      0.00      0.00
                                0.00      0.00      0.00

     dft-nl  stress (kbar)      0.00      0.00      0.00
                                0.00      0.00      0.00
                                0.00      0.00      0.00



     Writing output data file Gr-hex.save
 
     init_run     :      5.12s CPU      7.14s WALL (       1 calls)
     electrons    :    184.77s CPU    234.98s WALL (       1 calls)
     forces       :      0.55s CPU      1.06s WALL (       1 calls)
     stress       :      2.06s CPU      2.54s WALL (       1 calls)

     Called by init_run:
     wfcinit      :      4.74s CPU      6.46s WALL (       1 calls)
     potinit      :      0.15s CPU      0.15s WALL (       1 calls)

     Called by electrons:
     c_bands      :    152.43s CPU    194.88s WALL (      11 calls)
     sum_band     :     29.99s CPU     36.49s WALL (      11 calls)
     v_of_rho     :      1.12s CPU      1.46s WALL (      12 calls)
     v_h          :      0.08s CPU      0.10s WALL (      12 calls)
     v_xc         :      1.04s CPU      1.35s WALL (      12 calls)
     newd         :      0.70s CPU      0.80s WALL (      12 calls)
     mix_rho      :      0.13s CPU      0.18s WALL (      11 calls)

     Called by c_bands:
     init_us_2    :      3.38s CPU      3.22s WALL (    5000 calls)
     cegterg      :    146.31s CPU    188.76s WALL (    2200 calls)

     Called by sum_band:
     sum_band:bec :      0.00s CPU      0.02s WALL (    2200 calls)
     addusdens    :      0.56s CPU      0.60s WALL (      11 calls)

     Called by *egterg:
     h_psi        :    134.81s CPU    174.30s WALL (    9255 calls)
     s_psi        :      1.52s CPU      1.66s WALL (    9255 calls)
     g_psi        :      0.71s CPU      0.82s WALL (    6855 calls)
     cdiaghg      :      2.23s CPU      3.00s WALL (    9055 calls)
     cegterg:over :      3.74s CPU      5.18s WALL (    6855 calls)
     cegterg:upda :      2.99s CPU      3.11s WALL (    6855 calls)
     cegterg:last :      1.08s CPU      1.15s WALL (    2275 calls)

     Called by h_psi:
     h_psi:vloc   :    129.32s CPU    167.31s WALL (    9255 calls)
     h_psi:vnl    :      5.04s CPU      6.48s WALL (    9255 calls)
     add_vuspsi   :      1.61s CPU      1.65s WALL (    9255 calls)

     General routines
     calbec       :      4.60s CPU      6.59s WALL (   11855 calls)
     fft          :      1.03s CPU      1.40s WALL (     196 calls)
     ffts         :      0.03s CPU      0.06s WALL (      23 calls)
     fftw         :    121.85s CPU    163.51s WALL (  114268 calls)
     interpolate  :      0.17s CPU      0.22s WALL (      23 calls)
     davcio       :      2.00s CPU      1.44s WALL (    7200 calls)
 
     Parallel routines
     fft_scatter  :     37.63s CPU     71.96s WALL (  114487 calls)
     EXX routines
 
     PWSCF        :  3m12.93s CPU     4m 8.19s WALL

 
   This run was terminated on:  14:13:51  29Oct2013            

=------------------------------------------------------------------------------=
   JOB DONE.
=------------------------------------------------------------------------------=
