
     Program PWSCF v.5.0        starts on 29Oct2013 at 14:13:52 

     This program is part of the open-source Quantum ESPRESSO suite
     for quantum simulation of materials; please cite
         "P. Giannozzi et al., J. Phys.:Condens. Matter 21 395502 (2009);
          URL http://www.quantum-espresso.org", 
     in publications or presentations arising from this work. More details at
     http://www.quantum-espresso.org/quote.php

     Parallel version (MPI), running on     4 processors
     R & G space division:  proc/pool =    4

     Current dimensions of program PWSCF are:
     Max number of different atomic species (ntypx) = 10
     Max number of k-points (npk) =  40000
     Max angular momentum in pseudopotentials (lmaxx) =  3
     Waiting for input...
     Reading input from standard input
               file C.pbe-rrkjus.UPF: wavefunction(s)  2S 2P renormalized

     Atomic positions and unit cell read from directory:
     ./ref/Gr-hex.save/
 

     Subspace diagonalization in iterative solution of the eigenvalue problem:
     a serial algorithm will be used

 kpoint style unhandled: 
 none                                                                           
  
 kpoint style unhandled: 
 none                                                                           
  
 kpoint style unhandled: 
 none                                                                           
  
 kpoint style unhandled: 
 none                                                                           
  
 
     Parallelization info
     --------------------
     sticks:   dense  smooth     PW     G-vecs:    dense   smooth      PW
     Min         188      94     30                34029    12034    2082
     Max         190      95     31                34054    12069    2103
     Sum         757     379    121               136167    48207    8361
 


     bravais-lattice index     =            4
     lattice parameter (alat)  =       4.6490  a.u.
     unit-cell volume          =     696.1443 (a.u.)^3
     number of atoms/cell      =            2
     number of atomic types    =            1
     number of electrons       =         8.00
     number of Kohn-Sham states=            8
     kinetic-energy cutoff     =      64.0000  Ry
     charge density cutoff     =     512.0000  Ry
     Exchange-correlation      =  SLA  PW   PBE  PBE ( 1 4 3 4 0)
     EXX-fraction              =        0.00

     celldm(1)=   4.649000  celldm(2)=   0.000000  celldm(3)=   8.000000
     celldm(4)=   0.000000  celldm(5)=   0.000000  celldm(6)=   0.000000

     crystal axes: (cart. coord. in units of alat)
               a(1) = (   1.000000   0.000000   0.000000 )  
               a(2) = (  -0.500000   0.866025   0.000000 )  
               a(3) = (   0.000000   0.000000   8.000000 )  

     reciprocal axes: (cart. coord. in units 2 pi/alat)
               b(1) = (  1.000000  0.577350  0.000000 )  
               b(2) = (  0.000000  1.154701  0.000000 )  
               b(3) = (  0.000000  0.000000  0.125000 )  


     PseudoPot. # 1 for C  read from file:
     ../pseudo/C.pbe-rrkjus.UPF
     MD5 check sum: 00fb224312de0c5b6853bd333518df6f
     Pseudo is Ultrasoft, Zval =  4.0
     Generated by new atomic code, or converted to UPF format
     Using radial grid of  627 points,  4 beta functions with: 
                l(1) =   0
                l(2) =   0
                l(3) =   1
                l(4) =   1
     Q(r) pseudized with 0 coefficients 


     atomic species   valence    mass     pseudopotential
        C              4.00    12.00000     C ( 1.00)

     No symmetry found


                                    s                        frac. trans.

      isym =  1     identity                                     

 cryst.   s( 1) = (     1          0          0      )
                  (     0          1          0      )
                  (     0          0          1      )

 cart.    s( 1) = (  1.0000000  0.0000000  0.0000000 )
                  (  0.0000000  1.0000000  0.0000000 )
                  (  0.0000000  0.0000000  1.0000000 )


     point group C_1 (1)    
     there are  1 classes
     the character table:

       E    
A      1.00

     the symmetry operations in each class:
     E        1

   Cartesian axes

     site n.     atom                  positions (alat units)
         1           C   tau(   1) = (   0.0000000   0.0000000   0.0000000  )
         2           C   tau(   2) = (   0.0000000   0.5771134   0.0000000  )

   Crystallographic axes

     site n.     atom                  positions (cryst. coord.)
         1           C   tau(   1) = (  0.0000000  0.0000000  0.0000000  )
         2           C   tau(   2) = (  0.3331966  0.6663931  0.0000000  )

     number of k points=    97  Fermi-Dirac smearing, width (Ry)=  0.0000
                       cart. coord. in units 2pi/alat
        k(    1) = (   0.0000000   0.0000000   0.0000000), wk =   0.0206186
        k(    2) = (   0.0104166   0.0180420   0.0000000), wk =   0.0206186
        k(    3) = (   0.0208331   0.0360840   0.0000000), wk =   0.0206186
        k(    4) = (   0.0312497   0.0541260   0.0000000), wk =   0.0206186
        k(    5) = (   0.0416663   0.0721681   0.0000000), wk =   0.0206186
        k(    6) = (   0.0520828   0.0902101   0.0000000), wk =   0.0206186
        k(    7) = (   0.0624994   0.1082521   0.0000000), wk =   0.0206186
        k(    8) = (   0.0729159   0.1262941   0.0000000), wk =   0.0206186
        k(    9) = (   0.0833325   0.1443361   0.0000000), wk =   0.0206186
        k(   10) = (   0.0937491   0.1623781   0.0000000), wk =   0.0206186
        k(   11) = (   0.1041656   0.1804202   0.0000000), wk =   0.0206186
        k(   12) = (   0.1145822   0.1984622   0.0000000), wk =   0.0206186
        k(   13) = (   0.1249988   0.2165042   0.0000000), wk =   0.0206186
        k(   14) = (   0.1354153   0.2345462   0.0000000), wk =   0.0206186
        k(   15) = (   0.1458319   0.2525882   0.0000000), wk =   0.0206186
        k(   16) = (   0.1562484   0.2706302   0.0000000), wk =   0.0206186
        k(   17) = (   0.1666650   0.2886722   0.0000000), wk =   0.0206186
        k(   18) = (   0.1770816   0.3067143   0.0000000), wk =   0.0206186
        k(   19) = (   0.1874981   0.3247563   0.0000000), wk =   0.0206186
        k(   20) = (   0.1979147   0.3427983   0.0000000), wk =   0.0206186
        k(   21) = (   0.2083313   0.3608403   0.0000000), wk =   0.0206186
        k(   22) = (   0.2187478   0.3788823   0.0000000), wk =   0.0206186
        k(   23) = (   0.2291644   0.3969243   0.0000000), wk =   0.0206186
        k(   24) = (   0.2395809   0.4149664   0.0000000), wk =   0.0206186
        k(   25) = (   0.2499975   0.4330084   0.0000000), wk =   0.0206186
        k(   26) = (   0.2604141   0.4510504   0.0000000), wk =   0.0206186
        k(   27) = (   0.2708306   0.4690924   0.0000000), wk =   0.0206186
        k(   28) = (   0.2812472   0.4871344   0.0000000), wk =   0.0206186
        k(   29) = (   0.2916637   0.5051764   0.0000000), wk =   0.0206186
        k(   30) = (   0.3020803   0.5232184   0.0000000), wk =   0.0206186
        k(   31) = (   0.3124969   0.5412605   0.0000000), wk =   0.0206186
        k(   32) = (   0.3229134   0.5593025   0.0000000), wk =   0.0206186
        k(   33) = (   0.3333300   0.5773445   0.0000000), wk =   0.0206186
        k(   34) = (   0.3385384   0.5683236   0.0000000), wk =   0.0206186
        k(   35) = (   0.3437469   0.5593027   0.0000000), wk =   0.0206186
        k(   36) = (   0.3489553   0.5502817   0.0000000), wk =   0.0206186
        k(   37) = (   0.3541637   0.5412608   0.0000000), wk =   0.0206186
        k(   38) = (   0.3593722   0.5322399   0.0000000), wk =   0.0206186
        k(   39) = (   0.3645806   0.5232190   0.0000000), wk =   0.0206186
        k(   40) = (   0.3697891   0.5141981   0.0000000), wk =   0.0206186
        k(   41) = (   0.3749975   0.5051772   0.0000000), wk =   0.0206186
        k(   42) = (   0.3802059   0.4961562   0.0000000), wk =   0.0206186
        k(   43) = (   0.3854144   0.4871353   0.0000000), wk =   0.0206186
        k(   44) = (   0.3906228   0.4781144   0.0000000), wk =   0.0206186
        k(   45) = (   0.3958313   0.4690935   0.0000000), wk =   0.0206186
        k(   46) = (   0.4010397   0.4600726   0.0000000), wk =   0.0206186
        k(   47) = (   0.4062481   0.4510517   0.0000000), wk =   0.0206186
        k(   48) = (   0.4114566   0.4420307   0.0000000), wk =   0.0206186
        k(   49) = (   0.4166650   0.4330098   0.0000000), wk =   0.0206186
        k(   50) = (   0.4218734   0.4239889   0.0000000), wk =   0.0206186
        k(   51) = (   0.4270819   0.4149680   0.0000000), wk =   0.0206186
        k(   52) = (   0.4322903   0.4059471   0.0000000), wk =   0.0206186
        k(   53) = (   0.4374987   0.3969261   0.0000000), wk =   0.0206186
        k(   54) = (   0.4427072   0.3879052   0.0000000), wk =   0.0206186
        k(   55) = (   0.4479156   0.3788843   0.0000000), wk =   0.0206186
        k(   56) = (   0.4531241   0.3698634   0.0000000), wk =   0.0206186
        k(   57) = (   0.4583325   0.3608425   0.0000000), wk =   0.0206186
        k(   58) = (   0.4635409   0.3518216   0.0000000), wk =   0.0206186
        k(   59) = (   0.4687494   0.3428006   0.0000000), wk =   0.0206186
        k(   60) = (   0.4739578   0.3337797   0.0000000), wk =   0.0206186
        k(   61) = (   0.4791663   0.3247588   0.0000000), wk =   0.0206186
        k(   62) = (   0.4843747   0.3157379   0.0000000), wk =   0.0206186
        k(   63) = (   0.4895831   0.3067170   0.0000000), wk =   0.0206186
        k(   64) = (   0.4947916   0.2976961   0.0000000), wk =   0.0206186
        k(   65) = (   0.5000000   0.2886751   0.0000000), wk =   0.0206186
        k(   66) = (   0.4843750   0.2796540   0.0000000), wk =   0.0206186
        k(   67) = (   0.4687500   0.2706329   0.0000000), wk =   0.0206186
        k(   68) = (   0.4531250   0.2616118   0.0000000), wk =   0.0206186
        k(   69) = (   0.4375000   0.2525907   0.0000000), wk =   0.0206186
        k(   70) = (   0.4218750   0.2435696   0.0000000), wk =   0.0206186
        k(   71) = (   0.4062500   0.2345485   0.0000000), wk =   0.0206186
        k(   72) = (   0.3906250   0.2255274   0.0000000), wk =   0.0206186
        k(   73) = (   0.3750000   0.2165064   0.0000000), wk =   0.0206186
        k(   74) = (   0.3593750   0.2074853   0.0000000), wk =   0.0206186
        k(   75) = (   0.3437500   0.1984642   0.0000000), wk =   0.0206186
        k(   76) = (   0.3281250   0.1894431   0.0000000), wk =   0.0206186
        k(   77) = (   0.3125000   0.1804220   0.0000000), wk =   0.0206186
        k(   78) = (   0.2968750   0.1714009   0.0000000), wk =   0.0206186
        k(   79) = (   0.2812500   0.1623798   0.0000000), wk =   0.0206186
        k(   80) = (   0.2656250   0.1533587   0.0000000), wk =   0.0206186
        k(   81) = (   0.2500000   0.1443376   0.0000000), wk =   0.0206186
        k(   82) = (   0.2343750   0.1353165   0.0000000), wk =   0.0206186
        k(   83) = (   0.2187500   0.1262954   0.0000000), wk =   0.0206186
        k(   84) = (   0.2031250   0.1172743   0.0000000), wk =   0.0206186
        k(   85) = (   0.1875000   0.1082532   0.0000000), wk =   0.0206186
        k(   86) = (   0.1718750   0.0992321   0.0000000), wk =   0.0206186
        k(   87) = (   0.1562500   0.0902110   0.0000000), wk =   0.0206186
        k(   88) = (   0.1406250   0.0811899   0.0000000), wk =   0.0206186
        k(   89) = (   0.1250000   0.0721688   0.0000000), wk =   0.0206186
        k(   90) = (   0.1093750   0.0631477   0.0000000), wk =   0.0206186
        k(   91) = (   0.0937500   0.0541266   0.0000000), wk =   0.0206186
        k(   92) = (   0.0781250   0.0451055   0.0000000), wk =   0.0206186
        k(   93) = (   0.0625000   0.0360844   0.0000000), wk =   0.0206186
        k(   94) = (   0.0468750   0.0270633   0.0000000), wk =   0.0206186
        k(   95) = (   0.0312500   0.0180422   0.0000000), wk =   0.0206186
        k(   96) = (   0.0156250   0.0090211   0.0000000), wk =   0.0206186
        k(   97) = (   0.0000000   0.0000000   0.0000000), wk =   0.0206186

                       cryst. coord.
        k(    1) = (   0.0000000   0.0000000   0.0000000), wk =   0.0206186
        k(    2) = (   0.0104166   0.0104166   0.0000000), wk =   0.0206186
        k(    3) = (   0.0208331   0.0208331   0.0000000), wk =   0.0206186
        k(    4) = (   0.0312497   0.0312497   0.0000000), wk =   0.0206186
        k(    5) = (   0.0416663   0.0416663   0.0000000), wk =   0.0206186
        k(    6) = (   0.0520828   0.0520828   0.0000000), wk =   0.0206186
        k(    7) = (   0.0624994   0.0624994   0.0000000), wk =   0.0206186
        k(    8) = (   0.0729159   0.0729159   0.0000000), wk =   0.0206186
        k(    9) = (   0.0833325   0.0833325   0.0000000), wk =   0.0206186
        k(   10) = (   0.0937491   0.0937491   0.0000000), wk =   0.0206186
        k(   11) = (   0.1041656   0.1041656   0.0000000), wk =   0.0206186
        k(   12) = (   0.1145822   0.1145822   0.0000000), wk =   0.0206186
        k(   13) = (   0.1249988   0.1249988   0.0000000), wk =   0.0206186
        k(   14) = (   0.1354153   0.1354153   0.0000000), wk =   0.0206186
        k(   15) = (   0.1458319   0.1458319   0.0000000), wk =   0.0206186
        k(   16) = (   0.1562484   0.1562484   0.0000000), wk =   0.0206186
        k(   17) = (   0.1666650   0.1666650   0.0000000), wk =   0.0206186
        k(   18) = (   0.1770816   0.1770816   0.0000000), wk =   0.0206186
        k(   19) = (   0.1874981   0.1874981   0.0000000), wk =   0.0206186
        k(   20) = (   0.1979147   0.1979147   0.0000000), wk =   0.0206186
        k(   21) = (   0.2083313   0.2083312   0.0000000), wk =   0.0206186
        k(   22) = (   0.2187478   0.2187478   0.0000000), wk =   0.0206186
        k(   23) = (   0.2291644   0.2291644   0.0000000), wk =   0.0206186
        k(   24) = (   0.2395809   0.2395809   0.0000000), wk =   0.0206186
        k(   25) = (   0.2499975   0.2499975   0.0000000), wk =   0.0206186
        k(   26) = (   0.2604141   0.2604141   0.0000000), wk =   0.0206186
        k(   27) = (   0.2708306   0.2708306   0.0000000), wk =   0.0206186
        k(   28) = (   0.2812472   0.2812472   0.0000000), wk =   0.0206186
        k(   29) = (   0.2916637   0.2916637   0.0000000), wk =   0.0206186
        k(   30) = (   0.3020803   0.3020803   0.0000000), wk =   0.0206186
        k(   31) = (   0.3124969   0.3124969   0.0000000), wk =   0.0206186
        k(   32) = (   0.3229134   0.3229134   0.0000000), wk =   0.0206186
        k(   33) = (   0.3333300   0.3333300   0.0000000), wk =   0.0206186
        k(   34) = (   0.3385384   0.3229134   0.0000000), wk =   0.0206186
        k(   35) = (   0.3437469   0.3124969   0.0000000), wk =   0.0206186
        k(   36) = (   0.3489553   0.3020803   0.0000000), wk =   0.0206186
        k(   37) = (   0.3541637   0.2916637   0.0000000), wk =   0.0206186
        k(   38) = (   0.3593722   0.2812472   0.0000000), wk =   0.0206186
        k(   39) = (   0.3645806   0.2708306   0.0000000), wk =   0.0206186
        k(   40) = (   0.3697891   0.2604141   0.0000000), wk =   0.0206186
        k(   41) = (   0.3749975   0.2499975   0.0000000), wk =   0.0206186
        k(   42) = (   0.3802059   0.2395809   0.0000000), wk =   0.0206186
        k(   43) = (   0.3854144   0.2291644   0.0000000), wk =   0.0206186
        k(   44) = (   0.3906228   0.2187478   0.0000000), wk =   0.0206186
        k(   45) = (   0.3958313   0.2083312   0.0000000), wk =   0.0206186
        k(   46) = (   0.4010397   0.1979147   0.0000000), wk =   0.0206186
        k(   47) = (   0.4062481   0.1874981   0.0000000), wk =   0.0206186
        k(   48) = (   0.4114566   0.1770816   0.0000000), wk =   0.0206186
        k(   49) = (   0.4166650   0.1666650   0.0000000), wk =   0.0206186
        k(   50) = (   0.4218734   0.1562484   0.0000000), wk =   0.0206186
        k(   51) = (   0.4270819   0.1458319   0.0000000), wk =   0.0206186
        k(   52) = (   0.4322903   0.1354153   0.0000000), wk =   0.0206186
        k(   53) = (   0.4374987   0.1249988   0.0000000), wk =   0.0206186
        k(   54) = (   0.4427072   0.1145822   0.0000000), wk =   0.0206186
        k(   55) = (   0.4479156   0.1041656   0.0000000), wk =   0.0206186
        k(   56) = (   0.4531241   0.0937491   0.0000000), wk =   0.0206186
        k(   57) = (   0.4583325   0.0833325   0.0000000), wk =   0.0206186
        k(   58) = (   0.4635409   0.0729159   0.0000000), wk =   0.0206186
        k(   59) = (   0.4687494   0.0624994   0.0000000), wk =   0.0206186
        k(   60) = (   0.4739578   0.0520828   0.0000000), wk =   0.0206186
        k(   61) = (   0.4791663   0.0416662   0.0000000), wk =   0.0206186
        k(   62) = (   0.4843747   0.0312497   0.0000000), wk =   0.0206186
        k(   63) = (   0.4895831   0.0208331   0.0000000), wk =   0.0206186
        k(   64) = (   0.4947916   0.0104166   0.0000000), wk =   0.0206186
        k(   65) = (   0.5000000   0.0000000   0.0000000), wk =   0.0206186
        k(   66) = (   0.4843750   0.0000000   0.0000000), wk =   0.0206186
        k(   67) = (   0.4687500  -0.0000000   0.0000000), wk =   0.0206186
        k(   68) = (   0.4531250   0.0000000   0.0000000), wk =   0.0206186
        k(   69) = (   0.4375000   0.0000000   0.0000000), wk =   0.0206186
        k(   70) = (   0.4218750   0.0000000   0.0000000), wk =   0.0206186
        k(   71) = (   0.4062500   0.0000000   0.0000000), wk =   0.0206186
        k(   72) = (   0.3906250  -0.0000000   0.0000000), wk =   0.0206186
        k(   73) = (   0.3750000  -0.0000000   0.0000000), wk =   0.0206186
        k(   74) = (   0.3593750   0.0000000   0.0000000), wk =   0.0206186
        k(   75) = (   0.3437500   0.0000000   0.0000000), wk =   0.0206186
        k(   76) = (   0.3281250  -0.0000000   0.0000000), wk =   0.0206186
        k(   77) = (   0.3125000   0.0000000   0.0000000), wk =   0.0206186
        k(   78) = (   0.2968750   0.0000000   0.0000000), wk =   0.0206186
        k(   79) = (   0.2812500  -0.0000000   0.0000000), wk =   0.0206186
        k(   80) = (   0.2656250   0.0000000   0.0000000), wk =   0.0206186
        k(   81) = (   0.2500000   0.0000000   0.0000000), wk =   0.0206186
        k(   82) = (   0.2343750  -0.0000000   0.0000000), wk =   0.0206186
        k(   83) = (   0.2187500   0.0000000   0.0000000), wk =   0.0206186
        k(   84) = (   0.2031250   0.0000000   0.0000000), wk =   0.0206186
        k(   85) = (   0.1875000  -0.0000000   0.0000000), wk =   0.0206186
        k(   86) = (   0.1718750   0.0000000   0.0000000), wk =   0.0206186
        k(   87) = (   0.1562500   0.0000000   0.0000000), wk =   0.0206186
        k(   88) = (   0.1406250  -0.0000000   0.0000000), wk =   0.0206186
        k(   89) = (   0.1250000   0.0000000   0.0000000), wk =   0.0206186
        k(   90) = (   0.1093750   0.0000000   0.0000000), wk =   0.0206186
        k(   91) = (   0.0937500  -0.0000000   0.0000000), wk =   0.0206186
        k(   92) = (   0.0781250   0.0000000   0.0000000), wk =   0.0206186
        k(   93) = (   0.0625000   0.0000000   0.0000000), wk =   0.0206186
        k(   94) = (   0.0468750  -0.0000000   0.0000000), wk =   0.0206186
        k(   95) = (   0.0312500   0.0000000   0.0000000), wk =   0.0206186
        k(   96) = (   0.0156250   0.0000000   0.0000000), wk =   0.0206186
        k(   97) = (   0.0000000   0.0000000   0.0000000), wk =   0.0206186

     Dense  grid:   136167 G-vectors     FFT dimensions: (  36,  36, 270)

     Smooth grid:    48207 G-vectors     FFT dimensions: (  24,  24, 192)

     Largest allocated arrays     est. size (Mb)     dimensions
        Kohn-Sham Wavefunctions         0.18 Mb     (   1501,    8)
        NL pseudopotentials             0.37 Mb     (   1501,   16)
        Each V/rho on FFT grid          1.34 Mb     (  88128)
        Each G-vector array             0.26 Mb     (  34030)
        G-vector shells                 0.03 Mb     (   3975)
     Largest temporary arrays     est. size (Mb)     dimensions
        Auxiliary wavefunctions         0.73 Mb     (   1501,   32)
        Each subspace H/S matrix        0.02 Mb     (  32,  32)
        Each <psi_i|beta_j> matrix      0.00 Mb     (     16,    8)

     The potential is recalculated from file :
     ./ref/Gr-hex.save/charge-density.dat


     negative rho (up, down):  0.288E-05 0.000E+00
     Starting wfc are    8 randomized atomic wfcs

     total cpu time spent up to now is        0.8 secs

     per-process dynamical memory:    22.8 Mb

     Band Structure Calculation
     Davidson diagonalization with overlap

     Computing kpt #:     1
     total cpu time spent up to now is        1.5 secs

     Computing kpt #:     2
     total cpu time spent up to now is        2.1 secs

     Computing kpt #:     3
     total cpu time spent up to now is        2.8 secs

     Computing kpt #:     4
     total cpu time spent up to now is        3.5 secs

     Computing kpt #:     5
     total cpu time spent up to now is        4.1 secs

     Computing kpt #:     6
     total cpu time spent up to now is        4.7 secs

     Computing kpt #:     7
     total cpu time spent up to now is        5.4 secs

     Computing kpt #:     8
     total cpu time spent up to now is        6.1 secs

     Computing kpt #:     9
     total cpu time spent up to now is        6.8 secs

     Computing kpt #:    10
     total cpu time spent up to now is        7.6 secs

     Computing kpt #:    11
     total cpu time spent up to now is        8.4 secs

     Computing kpt #:    12
     total cpu time spent up to now is        9.0 secs

     Computing kpt #:    13
     total cpu time spent up to now is        9.8 secs

     Computing kpt #:    14
     total cpu time spent up to now is       10.5 secs

     Computing kpt #:    15
     total cpu time spent up to now is       11.3 secs

     Computing kpt #:    16
     total cpu time spent up to now is       12.0 secs

     Computing kpt #:    17
     total cpu time spent up to now is       13.5 secs

     Computing kpt #:    18
     total cpu time spent up to now is       14.5 secs

     Computing kpt #:    19
     total cpu time spent up to now is       15.7 secs

     Computing kpt #:    20
     total cpu time spent up to now is       16.6 secs

     Computing kpt #:    21
     total cpu time spent up to now is       17.2 secs

     Computing kpt #:    22
     total cpu time spent up to now is       18.0 secs

     Computing kpt #:    23
     total cpu time spent up to now is       18.7 secs

     Computing kpt #:    24
     total cpu time spent up to now is       19.4 secs

     Computing kpt #:    25
     total cpu time spent up to now is       20.1 secs

     Computing kpt #:    26
     total cpu time spent up to now is       21.1 secs

     Computing kpt #:    27
     total cpu time spent up to now is       21.9 secs

     Computing kpt #:    28
     total cpu time spent up to now is       22.9 secs

     Computing kpt #:    29
     total cpu time spent up to now is       23.9 secs

     Computing kpt #:    30
     total cpu time spent up to now is       24.7 secs

     Computing kpt #:    31
     total cpu time spent up to now is       25.4 secs

     Computing kpt #:    32
     total cpu time spent up to now is       26.0 secs

     Computing kpt #:    33
     total cpu time spent up to now is       26.7 secs

     Computing kpt #:    34
     total cpu time spent up to now is       27.3 secs

     Computing kpt #:    35
     total cpu time spent up to now is       28.1 secs

     Computing kpt #:    36
     total cpu time spent up to now is       28.8 secs

     Computing kpt #:    37
     total cpu time spent up to now is       29.6 secs

     Computing kpt #:    38
     total cpu time spent up to now is       30.3 secs

     Computing kpt #:    39
     total cpu time spent up to now is       31.1 secs

     Computing kpt #:    40
     total cpu time spent up to now is       31.8 secs

     Computing kpt #:    41
     total cpu time spent up to now is       32.8 secs

     Computing kpt #:    42
     total cpu time spent up to now is       33.7 secs

     Computing kpt #:    43
     total cpu time spent up to now is       34.7 secs

     Computing kpt #:    44
     total cpu time spent up to now is       35.6 secs

     Computing kpt #:    45
     total cpu time spent up to now is       36.6 secs

     Computing kpt #:    46
     total cpu time spent up to now is       37.3 secs

     Computing kpt #:    47
     total cpu time spent up to now is       38.4 secs

     Computing kpt #:    48
     total cpu time spent up to now is       39.3 secs

     Computing kpt #:    49
     total cpu time spent up to now is       40.3 secs

     Computing kpt #:    50
     total cpu time spent up to now is       41.3 secs

     Computing kpt #:    51
     total cpu time spent up to now is       42.5 secs

     Computing kpt #:    52
     total cpu time spent up to now is       43.6 secs

     Computing kpt #:    53
     total cpu time spent up to now is       44.4 secs

     Computing kpt #:    54
     total cpu time spent up to now is       45.2 secs

     Computing kpt #:    55
     total cpu time spent up to now is       46.3 secs

     Computing kpt #:    56
     total cpu time spent up to now is       47.2 secs

     Computing kpt #:    57
     total cpu time spent up to now is       48.1 secs

     Computing kpt #:    58
     total cpu time spent up to now is       48.8 secs

     Computing kpt #:    59
     total cpu time spent up to now is       49.6 secs

     Computing kpt #:    60
     total cpu time spent up to now is       50.3 secs

     Computing kpt #:    61
     total cpu time spent up to now is       51.1 secs

     Computing kpt #:    62
     total cpu time spent up to now is       51.8 secs

     Computing kpt #:    63
     total cpu time spent up to now is       52.6 secs

     Computing kpt #:    64
     total cpu time spent up to now is       53.3 secs

     Computing kpt #:    65
     total cpu time spent up to now is       53.9 secs

     Computing kpt #:    66
     total cpu time spent up to now is       54.7 secs

     Computing kpt #:    67
     total cpu time spent up to now is       55.5 secs

     Computing kpt #:    68
     total cpu time spent up to now is       56.2 secs

     Computing kpt #:    69
     total cpu time spent up to now is       56.9 secs

     Computing kpt #:    70
     total cpu time spent up to now is       57.5 secs

     Computing kpt #:    71
     total cpu time spent up to now is       58.4 secs

     Computing kpt #:    72
     total cpu time spent up to now is       59.2 secs

     Computing kpt #:    73
     total cpu time spent up to now is       59.9 secs

     Computing kpt #:    74
     total cpu time spent up to now is       60.7 secs

     Computing kpt #:    75
     total cpu time spent up to now is       61.4 secs

     Computing kpt #:    76
     total cpu time spent up to now is       62.3 secs

     Computing kpt #:    77
     total cpu time spent up to now is       63.2 secs

     Computing kpt #:    78
     total cpu time spent up to now is       64.1 secs

     Computing kpt #:    79
     total cpu time spent up to now is       65.1 secs

     Computing kpt #:    80
     total cpu time spent up to now is       65.9 secs

     Computing kpt #:    81
     total cpu time spent up to now is       67.0 secs

     Computing kpt #:    82
     total cpu time spent up to now is       68.1 secs

     Computing kpt #:    83
     total cpu time spent up to now is       69.0 secs

     Computing kpt #:    84
     total cpu time spent up to now is       69.9 secs

     Computing kpt #:    85
     total cpu time spent up to now is       70.9 secs

     Computing kpt #:    86
     total cpu time spent up to now is       71.9 secs

     Computing kpt #:    87
     total cpu time spent up to now is       72.8 secs

     Computing kpt #:    88
     total cpu time spent up to now is       73.6 secs

     Computing kpt #:    89
     total cpu time spent up to now is       74.3 secs

     Computing kpt #:    90
     total cpu time spent up to now is       75.0 secs

     Computing kpt #:    91
     total cpu time spent up to now is       75.8 secs

     Computing kpt #:    92
     total cpu time spent up to now is       76.5 secs

     Computing kpt #:    93
     total cpu time spent up to now is       77.4 secs

     Computing kpt #:    94
     total cpu time spent up to now is       78.3 secs

     Computing kpt #:    95
     total cpu time spent up to now is       79.0 secs

     Computing kpt #:    96
     total cpu time spent up to now is       79.7 secs

     Computing kpt #:    97
     total cpu time spent up to now is       80.4 secs

     ethr =  1.25E-14,  avg # of iterations = 46.7

     total cpu time spent up to now is       80.4 secs

     End of band structure calculation

          k = 0.0000 0.0000 0.0000     band energies (ev):

   -21.8518  -9.9612  -5.3883  -5.3707   0.9489   1.7444   2.0522   3.0149

     occupation numbers 
     0.0206   0.0206   0.0206   0.0206   0.0000   0.0000   0.0000   0.0000

          k = 0.0104 0.0180 0.0000     band energies (ev):

   -21.8441  -9.9519  -5.4180  -5.3899   0.9594   1.7550   2.0629   3.0255

     occupation numbers 
     0.0206   0.0206   0.0206   0.0206   0.0000   0.0000   0.0000   0.0000

          k = 0.0208 0.0361 0.0000     band energies (ev):

   -21.8209  -9.9242  -5.5107  -5.4423   0.9908   1.7869   2.0952   3.0575

     occupation numbers 
     0.0206   0.0206   0.0206   0.0206   0.0000   0.0000   0.0000   0.0000

          k = 0.0312 0.0541 0.0000     band energies (ev):

   -21.7824  -9.8781  -5.6626  -5.5270   1.0432   1.8400   2.1489   3.1107

     occupation numbers 
     0.0206   0.0206   0.0206   0.0206   0.0000   0.0000   0.0000   0.0000

          k = 0.0417 0.0722 0.0000     band energies (ev):

   -21.7285  -9.8135  -5.8668  -5.6435   1.1166   1.9144   2.2242   3.1853

     occupation numbers 
     0.0206   0.0206   0.0206   0.0206   0.0000   0.0000   0.0000   0.0000

          k = 0.0521 0.0902 0.0000     band energies (ev):

   -21.6592  -9.7306  -6.1162  -5.7905   1.2110   2.0100   2.3210   3.2811

     occupation numbers 
     0.0206   0.0206   0.0206   0.0206   0.0000   0.0000   0.0000   0.0000

          k = 0.0625 0.1083 0.0000     band energies (ev):

   -21.5746  -9.6295  -6.4030  -5.9661   1.3264   2.1268   2.4392   3.3982

     occupation numbers 
     0.0206   0.0206   0.0206   0.0206   0.0000   0.0000   0.0000   0.0000

          k = 0.0729 0.1263 0.0000     band energies (ev):

   -21.4748  -9.5103  -6.7201  -6.1681   1.4627   2.2648   2.5790   3.5365

     occupation numbers 
     0.0206   0.0206   0.0206   0.0206   0.0000   0.0000   0.0000   0.0000

          k = 0.0833 0.1443 0.0000     band energies (ev):

   -21.3597  -9.3732  -7.0608  -6.3942   1.6201   2.4239   2.7403   3.6960

     occupation numbers 
     0.0206   0.0206   0.0206   0.0206   0.0000   0.0000   0.0000   0.0000

          k = 0.0937 0.1624 0.0000     band energies (ev):

   -21.2294  -9.2183  -7.4193  -6.6418   1.7984   2.6041   2.9231   3.8766

     occupation numbers 
     0.0206   0.0206   0.0206   0.0206   0.0000   0.0000   0.0000   0.0000

          k = 0.1042 0.1804 0.0000     band energies (ev):

   -21.0841  -9.0460  -7.7906  -6.9083   1.9977   2.8053   3.1273   4.0784

     occupation numbers 
     0.0206   0.0206   0.0206   0.0206   0.0000   0.0000   0.0000   0.0000

          k = 0.1146 0.1985 0.0000     band energies (ev):

   -20.9238  -8.8563  -8.1705  -7.1910   2.2178   3.0275   3.3532   4.3013

     occupation numbers 
     0.0206   0.0206   0.0206   0.0206   0.0000   0.0000   0.0000   0.0000

          k = 0.1250 0.2165 0.0000     band energies (ev):

   -20.7486  -8.6497  -8.5553  -7.4873   2.4589   3.2705   3.6005   4.5451

     occupation numbers 
     0.0206   0.0206   0.0206   0.0206   0.0000   0.0000   0.0000   0.0000

          k = 0.1354 0.2345 0.0000     band energies (ev):

   -20.5586  -8.9421  -8.4264  -7.7947   2.7208   3.5343   3.8693   4.8097

     occupation numbers 
     0.0206   0.0206   0.0206   0.0206   0.0000   0.0000   0.0000   0.0000

          k = 0.1458 0.2526 0.0000     band energies (ev):

   -20.3540  -9.3284  -8.1870  -8.1108   3.0035   3.8186   4.1596   5.0307

     occupation numbers 
     0.0206   0.0206   0.0206   0.0206   0.0000   0.0000   0.0000   0.0000

          k = 0.1562 0.2706 0.0000     band energies (ev):

   -20.1349  -9.7123  -8.4332  -7.9318   3.3069   4.1233   4.4714   4.5659

     occupation numbers 
     0.0206   0.0206   0.0206   0.0206   0.0000   0.0000   0.0000   0.0000

          k = 0.1667 0.2887 0.0000     band energies (ev):

   -19.9015 -10.0920  -8.7598  -7.6614   3.6309   4.0985   4.4480   4.8046

     occupation numbers 
     0.0206   0.0206   0.0206   0.0206   0.0000   0.0000   0.0000   0.0000

          k = 0.1771 0.3067 0.0000     band energies (ev):

   -19.6541 -10.4661  -9.0887  -7.3765   3.6312   3.9753   4.7924   5.1594

     occupation numbers 
     0.0206   0.0206   0.0206   0.0206   0.0000   0.0000   0.0000   0.0000

          k = 0.1875 0.3248 0.0000     band energies (ev):

   -19.3930 -10.8335  -9.4178  -7.0778   3.1661   4.3401   5.1558   5.5356

     occupation numbers 
     0.0206   0.0206   0.0206   0.0206   0.0000   0.0000   0.0000   0.0000

          k = 0.1979 0.3428 0.0000     band energies (ev):

   -19.1183 -11.1930  -9.7454  -6.7662   2.7055   4.7249   5.5374   5.9332

     occupation numbers 
     0.0206   0.0206   0.0206   0.0206   0.0000   0.0000   0.0000   0.0000

          k = 0.2083 0.3608 0.0000     band energies (ev):

   -18.8306 -11.5440 -10.0699  -6.4426   2.2509   5.1297   5.9357   6.3523

     occupation numbers 
     0.0206   0.0206   0.0206   0.0206   0.0000   0.0000   0.0000   0.0000

          k = 0.2187 0.3789 0.0000     band energies (ev):

   -18.5302 -11.8856 -10.3897  -6.1083   1.8040   5.5539   6.3485   6.7927

     occupation numbers 
     0.0206   0.0206   0.0206   0.0206   0.0000   0.0000   0.0000   0.0000

          k = 0.2292 0.3969 0.0000     band energies (ev):

   -18.2177 -12.2174 -10.7033  -5.7645   1.3663   5.9972   6.7720   7.2545

     occupation numbers 
     0.0206   0.0206   0.0206   0.0206   0.0000   0.0000   0.0000   0.0000

          k = 0.2396 0.4150 0.0000     band energies (ev):

   -17.8940 -12.5388 -11.0092  -5.4130   0.9388   6.4589   7.1988   7.7375

     occupation numbers 
     0.0206   0.0206   0.0206   0.0206   0.0000   0.0000   0.0000   0.0000

          k = 0.2500 0.4330 0.0000     band energies (ev):

   -17.5598 -12.8493 -11.3058  -5.0554   0.5226   6.9380   7.6149   8.2417

     occupation numbers 
     0.0206   0.0206   0.0206   0.0206   0.0000   0.0000   0.0000   0.0000

          k = 0.2604 0.4511 0.0000     band energies (ev):

   -17.2164 -13.1487 -11.5914  -4.6940   0.1187   7.4333   7.9918   8.7669

     occupation numbers 
     0.0206   0.0206   0.0206   0.0206   0.0000   0.0000   0.0000   0.0000

          k = 0.2708 0.4691 0.0000     band energies (ev):

   -16.8656 -13.4366 -11.8639  -4.3311  -0.2720   7.9424   8.2810   9.3128

     occupation numbers 
     0.0206   0.0206   0.0206   0.0206   0.0000   0.0000   0.0000   0.0000

          k = 0.2812 0.4871 0.0000     band energies (ev):

   -16.5099 -13.7128 -12.1207  -3.9696  -0.6489   8.4376   8.4619   9.8786

     occupation numbers 
     0.0206   0.0206   0.0206   0.0206   0.0000   0.0000   0.0000   0.0000

          k = 0.2917 0.5052 0.0000     band energies (ev):

   -16.1528 -13.9770 -12.3580  -3.6126  -1.0114   8.4735   8.9856  10.4617

     occupation numbers 
     0.0206   0.0206   0.0206   0.0206   0.0000   0.0000   0.0000   0.0000

          k = 0.3021 0.5232 0.0000     band energies (ev):

   -15.8006 -14.2291 -12.5700  -3.2635  -1.3588   8.4430   9.5017  10.7469

     occupation numbers 
     0.0206   0.0206   0.0206   0.0206   0.0000   0.0000   0.0000   0.0000

          k = 0.3125 0.5413 0.0000     band energies (ev):

   -15.4629 -14.4688 -12.7471  -2.9262  -1.6906   8.3930   9.9861  10.7388

     occupation numbers 
     0.0206   0.0206   0.0206   0.0206   0.0000   0.0000   0.0000   0.0000

          k = 0.3229 0.5593 0.0000     band energies (ev):

   -15.1566 -14.6961 -12.8731  -2.6045  -2.0064   8.3519  10.3861  10.6914

     occupation numbers 
     0.0206   0.0206   0.0206   0.0206   0.0000   0.0000   0.0000   0.0000

          k = 0.3333 0.5773 0.0000     band energies (ev):

   -14.9124 -14.9065 -12.9225  -2.3079  -2.3002   8.3357  10.6037  10.6096

     occupation numbers 
     0.0206   0.0206   0.0206   0.0206   0.0000   0.0000   0.0000   0.0000

          k = 0.3385 0.5683 0.0000     band energies (ev):

   -15.0137 -14.8151 -12.9088  -2.4495  -2.1593   8.3400  10.5491  10.6327

     occupation numbers 
     0.0206   0.0206   0.0206   0.0206   0.0000   0.0000   0.0000   0.0000

          k = 0.3437 0.5593 0.0000     band energies (ev):

   -15.1131 -14.7474 -12.8658  -2.5888  -2.0228   8.3536  10.4858  10.6097

     occupation numbers 
     0.0206   0.0206   0.0206   0.0206   0.0000   0.0000   0.0000   0.0000

          k = 0.3490 0.5503 0.0000     band energies (ev):

   -15.2094 -14.7054 -12.7929  -2.7237  -1.8928   8.3769  10.4162  10.5524

     occupation numbers 
     0.0206   0.0206   0.0206   0.0206   0.0000   0.0000   0.0000   0.0000

          k = 0.3542 0.5413 0.0000     band energies (ev):

   -15.3024 -14.6873 -12.6922  -2.8544  -1.7697   8.4100  10.3417  10.4690

     occupation numbers 
     0.0206   0.0206   0.0206   0.0206   0.0000   0.0000   0.0000   0.0000

          k = 0.3594 0.5322 0.0000     band energies (ev):

   -15.3923 -14.6895 -12.5673  -2.9808  -1.6537   8.4530  10.2634  10.3617

     occupation numbers 
     0.0206   0.0206   0.0206   0.0206   0.0000   0.0000   0.0000   0.0000

          k = 0.3646 0.5232 0.0000     band energies (ev):

   -15.4789 -14.7080 -12.4227  -3.1028  -1.5449   8.5056  10.1823  10.2263

     occupation numbers 
     0.0206   0.0206   0.0206   0.0206   0.0000   0.0000   0.0000   0.0000

          k = 0.3698 0.5142 0.0000     band energies (ev):

   -15.5623 -14.7385 -12.2629  -3.2204  -1.4435   8.5673  10.0548  10.1000

     occupation numbers 
     0.0206   0.0206   0.0206   0.0206   0.0000   0.0000   0.0000   0.0000

          k = 0.3750 0.5052 0.0000     band energies (ev):

   -15.6425 -14.7776 -12.0916  -3.3336  -1.3495   8.6375   9.8462  10.0164

     occupation numbers 
     0.0206   0.0206   0.0206   0.0206   0.0000   0.0000   0.0000   0.0000

          k = 0.3802 0.4962 0.0000     band energies (ev):

   -15.7195 -14.8225 -11.9118  -3.4423  -1.2628   8.7150   9.6071   9.9330

     occupation numbers 
     0.0206   0.0206   0.0206   0.0206   0.0000   0.0000   0.0000   0.0000

          k = 0.3854 0.4871 0.0000     band energies (ev):

   -15.7932 -14.8712 -11.7261  -3.5466  -1.1834   8.7988   9.3477   9.8502

     occupation numbers 
     0.0206   0.0206   0.0206   0.0206   0.0000   0.0000   0.0000   0.0000

          k = 0.3906 0.4781 0.0000     band energies (ev):

   -15.8637 -14.9220 -11.5365  -3.6464  -1.1110   8.8873   9.0762   9.7687

     occupation numbers 
     0.0206   0.0206   0.0206   0.0206   0.0000   0.0000   0.0000   0.0000

          k = 0.3958 0.4691 0.0000     band energies (ev):

   -15.9309 -14.9737 -11.3446  -3.7416  -1.0455   8.7981   8.9789   9.6890

     occupation numbers 
     0.0206   0.0206   0.0206   0.0206   0.0000   0.0000   0.0000   0.0000

          k = 0.4010 0.4601 0.0000     band energies (ev):

   -15.9949 -15.0254 -11.1519  -3.8324  -0.9864   8.5174   9.0714   9.6114

     occupation numbers 
     0.0206   0.0206   0.0206   0.0206   0.0000   0.0000   0.0000   0.0000

          k = 0.4062 0.4511 0.0000     band energies (ev):

   -16.0556 -15.0765 -10.9596  -3.9186  -0.9335   8.2372   9.1629   9.5365

     occupation numbers 
     0.0206   0.0206   0.0206   0.0206   0.0000   0.0000   0.0000   0.0000

          k = 0.4115 0.4420 0.0000     band energies (ev):

   -16.1130 -15.1264 -10.7688  -4.0002  -0.8865   7.9598   9.2511   9.4644

     occupation numbers 
     0.0206   0.0206   0.0206   0.0206   0.0000   0.0000   0.0000   0.0000

          k = 0.4167 0.4330 0.0000     band energies (ev):

   -16.1672 -15.1746 -10.5807  -4.0772  -0.8448   7.6871   9.3337   9.3955

     occupation numbers 
     0.0206   0.0206   0.0206   0.0206   0.0000   0.0000   0.0000   0.0000

          k = 0.4219 0.4240 0.0000     band energies (ev):

   -16.2181 -15.2209 -10.3961  -4.1497  -0.8081   7.4210   9.3300   9.4090

     occupation numbers 
     0.0206   0.0206   0.0206   0.0206   0.0000   0.0000   0.0000   0.0000

          k = 0.4271 0.4150 0.0000     band energies (ev):

   -16.2658 -15.2649 -10.2163  -4.2175  -0.7761   7.1631   9.2680   9.4566

     occupation numbers 
     0.0206   0.0206   0.0206   0.0206   0.0000   0.0000   0.0000   0.0000

          k = 0.4323 0.4059 0.0000     band energies (ev):

   -16.3101 -15.3065 -10.0422  -4.2807  -0.7482   6.9148   9.2098   9.3928

     occupation numbers 
     0.0206   0.0206   0.0206   0.0206   0.0000   0.0000   0.0000   0.0000

          k = 0.4375 0.3969 0.0000     band energies (ev):

   -16.3512 -15.3455  -9.8748  -4.3393  -0.7241   6.6776   9.1554   9.3336

     occupation numbers 
     0.0206   0.0206   0.0206   0.0206   0.0000   0.0000   0.0000   0.0000

          k = 0.4427 0.3879 0.0000     band energies (ev):

   -16.3890 -15.3818  -9.7152  -4.3932  -0.7034   6.4528   9.1050   9.2790

     occupation numbers 
     0.0206   0.0206   0.0206   0.0206   0.0000   0.0000   0.0000   0.0000

          k = 0.4479 0.3789 0.0000     band energies (ev):

   -16.4236 -15.4152  -9.5645  -4.4424  -0.6858   6.2419   9.0587   9.2289

     occupation numbers 
     0.0206   0.0206   0.0206   0.0206   0.0000   0.0000   0.0000   0.0000

          k = 0.4531 0.3699 0.0000     band energies (ev):

   -16.4548 -15.4456  -9.4238  -4.4870  -0.6709   6.0461   9.0166   9.1835

     occupation numbers 
     0.0206   0.0206   0.0206   0.0206   0.0000   0.0000   0.0000   0.0000

          k = 0.4583 0.3608 0.0000     band energies (ev):

   -16.4828 -15.4730  -9.2942  -4.5270  -0.6584   5.8667   8.9788   9.1427

     occupation numbers 
     0.0206   0.0206   0.0206   0.0206   0.0000   0.0000   0.0000   0.0000

          k = 0.4635 0.3518 0.0000     band energies (ev):

   -16.5074 -15.4973  -9.1767  -4.5622  -0.6480   5.7050   8.9453   9.1067

     occupation numbers 
     0.0206   0.0206   0.0206   0.0206   0.0000   0.0000   0.0000   0.0000

          k = 0.4687 0.3428 0.0000     band energies (ev):

   -16.5288 -15.5185  -9.0724  -4.5928  -0.6395   5.5621   8.9161   9.0754

     occupation numbers 
     0.0206   0.0206   0.0206   0.0206   0.0000   0.0000   0.0000   0.0000

          k = 0.4740 0.3338 0.0000     band energies (ev):

   -16.5469 -15.5365  -8.9822  -4.6186  -0.6327   5.4391   8.8914   9.0489

     occupation numbers 
     0.0206   0.0206   0.0206   0.0206   0.0000   0.0000   0.0000   0.0000

          k = 0.4792 0.3248 0.0000     band energies (ev):

   -16.5617 -15.5513  -8.9071  -4.6398  -0.6274   5.3370   8.8711   9.0272

     occupation numbers 
     0.0206   0.0206   0.0206   0.0206   0.0000   0.0000   0.0000   0.0000

          k = 0.4844 0.3157 0.0000     band energies (ev):

   -16.5732 -15.5628  -8.8478  -4.6563  -0.6234   5.2566   8.8553   9.0102

     occupation numbers 
     0.0206   0.0206   0.0206   0.0206   0.0000   0.0000   0.0000   0.0000

          k = 0.4896 0.3067 0.0000     band energies (ev):

   -16.5815 -15.5710  -8.8050  -4.6680  -0.6206   5.1987   8.8440   8.9982

     occupation numbers 
     0.0206   0.0206   0.0206   0.0206   0.0000   0.0000   0.0000   0.0000

          k = 0.4948 0.2977 0.0000     band energies (ev):

   -16.5864 -15.5759  -8.7791  -4.6751  -0.6190   5.1637   8.8372   8.9909

     occupation numbers 
     0.0206   0.0206   0.0206   0.0206   0.0000   0.0000   0.0000   0.0000

          k = 0.5000 0.2887 0.0000     band energies (ev):

   -16.5880 -15.5776  -8.7704  -4.6774  -0.6185   5.1520   8.8349   8.9885

     occupation numbers 
     0.0206   0.0206   0.0206   0.0206   0.0000   0.0000   0.0000   0.0000

          k = 0.4844 0.2797 0.0000     band energies (ev):

   -16.6903 -15.4668  -8.7646  -4.7155  -0.5714   5.1548   8.4306   9.3019

     occupation numbers 
     0.0206   0.0206   0.0206   0.0206   0.0000   0.0000   0.0000   0.0000

          k = 0.4688 0.2706 0.0000     band energies (ev):

   -16.9205 -15.2108  -8.7474  -4.8245  -0.4352   5.1631   7.9706   8.8421

     occupation numbers 
     0.0206   0.0206   0.0206   0.0206   0.0000   0.0000   0.0000   0.0000

          k = 0.4531 0.2616 0.0000     band energies (ev):

   -17.1948 -14.8937  -8.7187  -4.9916  -0.2231   5.1768   7.5216   8.3901

     occupation numbers 
     0.0206   0.0206   0.0206   0.0206   0.0000   0.0000   0.0000   0.0000

          k = 0.4375 0.2526 0.0000     band energies (ev):

   -17.4811 -14.5478  -8.6786  -5.2016   0.0496   5.1955   7.0858   7.9498

     occupation numbers 
     0.0206   0.0206   0.0206   0.0206   0.0000   0.0000   0.0000   0.0000

          k = 0.4219 0.2436 0.0000     band energies (ev):

   -17.7678 -14.1846  -8.6273  -5.4406   0.3686   5.2186   6.6646   7.5226

     occupation numbers 
     0.0206   0.0206   0.0206   0.0206   0.0000   0.0000   0.0000   0.0000

          k = 0.4062 0.2345 0.0000     band energies (ev):

   -18.0502 -13.8094  -8.5649  -5.6978   0.7225   5.2447   6.2598   7.1092

     occupation numbers 
     0.0206   0.0206   0.0206   0.0206   0.0000   0.0000   0.0000   0.0000

          k = 0.3906 0.2255 0.0000     band energies (ev):

   -18.3258 -13.4247  -8.4915  -5.9651   1.1025   5.2689   5.8761   6.7103

     occupation numbers 
     0.0206   0.0206   0.0206   0.0206   0.0000   0.0000   0.0000   0.0000

          k = 0.3750 0.2165 0.0000     band energies (ev):

   -18.5934 -13.0323  -8.4075  -6.2366   1.5020   5.2595   5.5451   6.3262

     occupation numbers 
     0.0206   0.0206   0.0206   0.0206   0.0000   0.0000   0.0000   0.0000

          k = 0.3594 0.2075 0.0000     band energies (ev):

   -18.8522 -12.6335  -8.3132  -6.5080   1.9159   5.0524   5.4305   5.9572

     occupation numbers 
     0.0206   0.0206   0.0206   0.0206   0.0000   0.0000   0.0000   0.0000

          k = 0.3438 0.1985 0.0000     band energies (ev):

   -19.1016 -12.2294  -8.2088  -6.7764   2.3398   4.7275   5.4513   5.6038

     occupation numbers 
     0.0206   0.0206   0.0206   0.0206   0.0000   0.0000   0.0000   0.0000

          k = 0.3281 0.1894 0.0000     band energies (ev):

   -19.3411 -11.8210  -8.0947  -7.0393   2.7699   4.3997   5.2665   5.4827

     occupation numbers 
     0.0206   0.0206   0.0206   0.0206   0.0000   0.0000   0.0000   0.0000

          k = 0.3125 0.1804 0.0000     band energies (ev):

   -19.5706 -11.4094  -7.9714  -7.2952   3.2018   4.0829   4.9469   5.2710

     occupation numbers 
     0.0206   0.0206   0.0206   0.0206   0.0000   0.0000   0.0000   0.0000

          k = 0.2969 0.1714 0.0000     band energies (ev):

   -19.7898 -10.9956  -7.8395  -7.5426   3.6281   3.7797   4.6495   4.9608

     occupation numbers 
     0.0206   0.0206   0.0206   0.0206   0.0000   0.0000   0.0000   0.0000

          k = 0.2812 0.1624 0.0000     band energies (ev):

   -19.9985 -10.5809  -7.7806  -7.6996   3.4912   4.0066   4.4133   4.6636

     occupation numbers 
     0.0206   0.0206   0.0206   0.0206   0.0000   0.0000   0.0000   0.0000

          k = 0.2656 0.1534 0.0000     band energies (ev):

   -20.1966 -10.1664  -8.0083  -7.5524   3.2177   3.9984   4.3818   4.5713

     occupation numbers 
     0.0206   0.0206   0.0206   0.0206   0.0000   0.0000   0.0000   0.0000

          k = 0.2500 0.1443 0.0000     band energies (ev):

   -20.3838  -9.7538  -8.2251  -7.3987   2.9595   3.7652   4.1160   4.9064

     occupation numbers 
     0.0206   0.0206   0.0206   0.0206   0.0000   0.0000   0.0000   0.0000

          k = 0.2344 0.1353 0.0000     band energies (ev):

   -20.5601  -9.3444  -8.4305  -7.2396   2.7166   3.5269   3.8662   4.7931

     occupation numbers 
     0.0206   0.0206   0.0206   0.0206   0.0000   0.0000   0.0000   0.0000

          k = 0.2188 0.1263 0.0000     band energies (ev):

   -20.7255  -8.9402  -8.6240  -7.0760   2.4892   3.3000   3.6325   4.5724

     occupation numbers 
     0.0206   0.0206   0.0206   0.0206   0.0000   0.0000   0.0000   0.0000

          k = 0.2031 0.1173 0.0000     band energies (ev):

   -20.8797  -8.8053  -8.5431  -6.9094   2.2773   3.0872   3.4148   4.3604

     occupation numbers 
     0.0206   0.0206   0.0206   0.0206   0.0000   0.0000   0.0000   0.0000

          k = 0.1875 0.1083 0.0000     band energies (ev):

   -21.0228  -8.9741  -8.1554  -6.7411   2.0809   2.8894   3.2133   4.1625

     occupation numbers 
     0.0206   0.0206   0.0206   0.0206   0.0000   0.0000   0.0000   0.0000

          k = 0.1719 0.0992 0.0000     band energies (ev):

   -21.1547  -9.1301  -7.7795  -6.5728   1.9002   2.7071   3.0278   3.9798

     occupation numbers 
     0.0206   0.0206   0.0206   0.0206   0.0000   0.0000   0.0000   0.0000

          k = 0.1562 0.0902 0.0000     band energies (ev):

   -21.2753  -9.2732  -7.4182  -6.4065   1.7352   2.5404   2.8585   3.8127

     occupation numbers 
     0.0206   0.0206   0.0206   0.0206   0.0000   0.0000   0.0000   0.0000

          k = 0.1406 0.0812 0.0000     band energies (ev):

   -21.3845  -9.4030  -7.0747  -6.2441   1.5858   2.3894   2.7053   3.6613

     occupation numbers 
     0.0206   0.0206   0.0206   0.0206   0.0000   0.0000   0.0000   0.0000

          k = 0.1250 0.0722 0.0000     band energies (ev):

   -21.4824  -9.5196  -6.7522  -6.0881   1.4521   2.2542   2.5682   3.5258

     occupation numbers 
     0.0206   0.0206   0.0206   0.0206   0.0000   0.0000   0.0000   0.0000

          k = 0.1094 0.0631 0.0000     band energies (ev):

   -21.5688  -9.6227  -6.4544  -5.9409   1.3342   2.1348   2.4473   3.4061

     occupation numbers 
     0.0206   0.0206   0.0206   0.0206   0.0000   0.0000   0.0000   0.0000

          k = 0.0938 0.0541 0.0000     band energies (ev):

   -21.6438  -9.7123  -6.1852  -5.8054   1.2319   2.0313   2.3425   3.3024

     occupation numbers 
     0.0206   0.0206   0.0206   0.0206   0.0000   0.0000   0.0000   0.0000

          k = 0.0781 0.0451 0.0000     band energies (ev):

   -21.7073  -9.7882  -5.9485  -5.6842   1.1454   1.9436   2.2538   3.2145

     occupation numbers 
     0.0206   0.0206   0.0206   0.0206   0.0000   0.0000   0.0000   0.0000

          k = 0.0625 0.0361 0.0000     band energies (ev):

   -21.7593  -9.8504  -5.7482  -5.5802   1.0747   1.8719   2.1812   3.1427

     occupation numbers 
     0.0206   0.0206   0.0206   0.0206   0.0000   0.0000   0.0000   0.0000

          k = 0.0469 0.0271 0.0000     band energies (ev):

   -21.7997  -9.8988  -5.5881  -5.4959   1.0196   1.8161   2.1248   3.0868

     occupation numbers 
     0.0206   0.0206   0.0206   0.0206   0.0000   0.0000   0.0000   0.0000

          k = 0.0312 0.0180 0.0000     band energies (ev):

   -21.8286  -9.9335  -5.4719  -5.4331   0.9803   1.7763   2.0844   3.0468

     occupation numbers 
     0.0206   0.0206   0.0206   0.0206   0.0000   0.0000   0.0000   0.0000

          k = 0.0156 0.0090 0.0000     band energies (ev):

   -21.8460  -9.9543  -5.4056  -5.3901   0.9567   1.7524   2.0603   3.0229

     occupation numbers 
     0.0206   0.0206   0.0206   0.0206   0.0000   0.0000   0.0000   0.0000

          k = 0.0000 0.0000 0.0000     band energies (ev):

   -21.8518  -9.9612  -5.3883  -5.3707   0.9489   1.7444   2.0522   3.0149

     occupation numbers 
     0.0206   0.0206   0.0206   0.0206   0.0000   0.0000   0.0000   0.0000

     the Fermi energy is    -2.3040 ev

     Writing output data file Gr-hex.save
 
     init_run     :      0.28s CPU      0.38s WALL (       1 calls)
     electrons    :     64.76s CPU     79.69s WALL (       1 calls)

     Called by init_run:
     wfcinit      :      0.00s CPU      0.00s WALL (       1 calls)
     potinit      :      0.13s CPU      0.15s WALL (       1 calls)

     Called by electrons:
     c_bands      :     64.76s CPU     79.64s WALL (       1 calls)
     v_of_rho     :      0.09s CPU      0.10s WALL (       1 calls)
     v_h          :      0.01s CPU      0.01s WALL (       1 calls)
     v_xc         :      0.08s CPU      0.09s WALL (       1 calls)
     newd         :      0.06s CPU      0.06s WALL (       1 calls)

     Called by c_bands:
     init_us_2    :      0.01s CPU      0.05s WALL (      97 calls)
     cegterg      :     61.94s CPU     74.61s WALL (     274 calls)

     Called by sum_band:

     Called by *egterg:
     h_psi        :     54.94s CPU     67.33s WALL (    4902 calls)
     s_psi        :      0.68s CPU      0.69s WALL (    4902 calls)
     g_psi        :      0.54s CPU      0.46s WALL (    4531 calls)
     cdiaghg      :      1.41s CPU      1.87s WALL (    4628 calls)
     cegterg:over :      2.23s CPU      3.02s WALL (    4531 calls)
     cegterg:upda :      2.00s CPU      2.25s WALL (    4531 calls)
     cegterg:last :      1.29s CPU      1.27s WALL (     841 calls)

     Called by h_psi:
     h_psi:vloc   :     52.56s CPU     64.26s WALL (    4902 calls)
     h_psi:vnl    :      2.20s CPU      2.85s WALL (    4902 calls)
     add_vuspsi   :      0.55s CPU      0.73s WALL (    4902 calls)

     General routines
     calbec       :      1.63s CPU      2.10s WALL (    4902 calls)
     fft          :      0.06s CPU      0.07s WALL (      12 calls)
     ffts         :      0.01s CPU      0.00s WALL (       1 calls)
     fftw         :     41.73s CPU     52.88s WALL (   40098 calls)
     interpolate  :      0.01s CPU      0.01s WALL (       1 calls)
     davcio       :      0.22s CPU      0.30s WALL (      97 calls)
 
     Parallel routines
     fft_scatter  :     11.49s CPU     20.27s WALL (   40111 calls)
     EXX routines
 
     PWSCF        :  1m 5.59s CPU     1m21.42s WALL

 
   This run was terminated on:  14:15:13  29Oct2013            

=------------------------------------------------------------------------------=
   JOB DONE.
=------------------------------------------------------------------------------=
