
     Program PWSCF v.5.0        starts on  5Jul2013 at 11:27:12 

     This program is part of the open-source Quantum ESPRESSO suite
     for quantum simulation of materials; please cite
         "P. Giannozzi et al., J. Phys.:Condens. Matter 21 395502 (2009);
          URL http://www.quantum-espresso.org", 
     in publications or presentations arising from this work. More details at
     http://www.quantum-espresso.org/quote.php

     Parallel version (MPI), running on     1 processors

     Current dimensions of program PWSCF are:
     Max number of different atomic species (ntypx) = 10
     Max number of k-points (npk) =  40000
     Max angular momentum in pseudopotentials (lmaxx) =  3
     Waiting for input...
     Reading input from standard input

     Subspace diagonalization in iterative solution of the eigenvalue problem:
     a serial algorithm will be used

     Message from routine setup:
     no reason to have ecutrho>4*ecutwfc
 kpoint style unhandled: 
 none                                                                           
  
 
     G-vector sticks info
     --------------------
     sticks:   dense  smooth     PW     G-vecs:    dense   smooth      PW
     Sum         921     467    151                17789     6339    1157
 

     Title: 
     Sodiumbcc                                                                  


     bravais-lattice index     =            3
     lattice parameter (alat)  =       7.9935  a.u.
     unit-cell volume          =     255.3765 (a.u.)^3
     number of atoms/cell      =            1
     number of atomic types    =            1
     number of electrons       =         1.00
     number of Kohn-Sham states=            5
     kinetic-energy cutoff     =      32.0000  Ry
     charge density cutoff     =     256.0000  Ry
     convergence threshold     =      1.0E-12
     mixing beta               =       0.7000
     number of iterations used =            8  plain     mixing
     Exchange-correlation      = SLA  PZ   NOGX NOGC ( 1 1 0 0 0)
     EXX-fraction              =        0.00

     celldm(1)=   7.993500  celldm(2)=   0.000000  celldm(3)=   0.000000
     celldm(4)=   0.000000  celldm(5)=   0.000000  celldm(6)=   0.000000

     crystal axes: (cart. coord. in units of alat)
               a(1) = (   0.500000   0.500000   0.500000 )  
               a(2) = (  -0.500000   0.500000   0.500000 )  
               a(3) = (  -0.500000  -0.500000   0.500000 )  

     reciprocal axes: (cart. coord. in units 2 pi/alat)
               b(1) = (  1.000000  0.000000  1.000000 )  
               b(2) = ( -1.000000  1.000000  0.000000 )  
               b(3) = (  0.000000 -1.000000  1.000000 )  


     PseudoPot. # 1 for Na read from file:
     ./pseudo/Na.cpi.UPF
     MD5 check sum: be28e8dfdc1171974bc59dc2f2debaec
     Pseudo is Norm-conserving, Zval =  1.0
     Generated by new atomic code, or converted to UPF format
     Using radial grid of  485 points,  0 beta functions with: 

     atomic species   valence    mass     pseudopotential
        Na             1.00    26.00000     Na( 1.00)

     48 Sym. Ops., with inversion, found



   Cartesian axes

     site n.     atom                  positions (alat units)
         1           Na  tau(   1) = (   0.0000000   0.0000000   0.0000000  )

     number of k points=   250  gaussian smearing, width (Ry)=  0.0000

     Number of k-points >= 100: set verbosity='high' to print them.

     Dense  grid:    17789 G-vectors     FFT dimensions: (  36,  36,  36)

     Smooth grid:     6339 G-vectors     FFT dimensions: (  25,  25,  25)

     Largest allocated arrays     est. size (Mb)     dimensions
        Kohn-Sham Wavefunctions         0.06 Mb     (    790,    5)
        NL pseudopotentials             0.00 Mb     (    790,    0)
        Each V/rho on FFT grid          0.71 Mb     (  46656)
        Each G-vector array             0.14 Mb     (  17789)
        G-vector shells                 0.00 Mb     (    192)
     Largest temporary arrays     est. size (Mb)     dimensions
        Auxiliary wavefunctions         0.24 Mb     (    790,   20)
        Each subspace H/S matrix        0.01 Mb     (  20,  20)
        Each <psi_i|beta_j> matrix      0.00 Mb     (      0,    5)
        Arrays for rho mixing           5.70 Mb     (  46656,   8)

     Initial potential from superposition of free atoms

     starting charge    0.99373, renormalised to    1.00000
     Starting wfc are    1 randomized atomic wfcs

     total cpu time spent up to now is        1.0 secs

     per-process dynamical memory:    11.7 Mb

     Self-consistent Calculation

     iteration #  1     ecut=    32.00 Ry     beta=0.70
     Davidson diagonalization with overlap
     ethr =  1.00E-02,  avg # of iterations =  6.3

     Threshold (ethr) on eigenvalues was too large:
     Diagonalizing with lowered threshold

     Davidson diagonalization with overlap
     ethr =  5.43E-05,  avg # of iterations =  3.9

     total cpu time spent up to now is        9.3 secs

     total energy              =      -0.47958675 Ry
     Harris-Foulkes estimate   =      -0.47922556 Ry
     estimated scf accuracy    <       0.00054005 Ry

     iteration #  2     ecut=    32.00 Ry     beta=0.70
     Davidson diagonalization with overlap
     ethr =  5.40E-05,  avg # of iterations =  1.0

     total cpu time spent up to now is       11.4 secs

     total energy              =      -0.47964968 Ry
     Harris-Foulkes estimate   =      -0.47959563 Ry
     estimated scf accuracy    <       0.00005978 Ry

     iteration #  3     ecut=    32.00 Ry     beta=0.70
     Davidson diagonalization with overlap
     ethr =  5.98E-06,  avg # of iterations =  1.7

     total cpu time spent up to now is       13.7 secs

     total energy              =      -0.47965356 Ry
     Harris-Foulkes estimate   =      -0.47965372 Ry
     estimated scf accuracy    <       0.00000003 Ry

     iteration #  4     ecut=    32.00 Ry     beta=0.70
     Davidson diagonalization with overlap
     ethr =  3.11E-09,  avg # of iterations =  2.2

     total cpu time spent up to now is       16.1 secs

     total energy              =      -0.47965393 Ry
     Harris-Foulkes estimate   =      -0.47965378 Ry
     estimated scf accuracy    <       0.00000018 Ry

     iteration #  5     ecut=    32.00 Ry     beta=0.70
     Davidson diagonalization with overlap
     ethr =  3.11E-09,  avg # of iterations =  1.5

     total cpu time spent up to now is       18.4 secs

     total energy              =      -0.47965394 Ry
     Harris-Foulkes estimate   =      -0.47965394 Ry
     estimated scf accuracy    <          2.6E-09 Ry

     iteration #  6     ecut=    32.00 Ry     beta=0.70
     Davidson diagonalization with overlap
     ethr =  2.56E-10,  avg # of iterations =  1.5

     total cpu time spent up to now is       20.6 secs

     total energy              =      -0.47965395 Ry
     Harris-Foulkes estimate   =      -0.47965394 Ry
     estimated scf accuracy    <          3.6E-09 Ry

     iteration #  7     ecut=    32.00 Ry     beta=0.70
     Davidson diagonalization with overlap
     ethr =  2.56E-10,  avg # of iterations =  1.5

     total cpu time spent up to now is       22.8 secs

     total energy              =      -0.47965395 Ry
     Harris-Foulkes estimate   =      -0.47965395 Ry
     estimated scf accuracy    <          2.6E-10 Ry

     iteration #  8     ecut=    32.00 Ry     beta=0.70
     Davidson diagonalization with overlap
     ethr =  2.56E-11,  avg # of iterations =  1.0

     total cpu time spent up to now is       25.1 secs

     total energy              =      -0.47965395 Ry
     Harris-Foulkes estimate   =      -0.47965395 Ry
     estimated scf accuracy    <          6.4E-12 Ry

     iteration #  9     ecut=    32.00 Ry     beta=0.70
     Davidson diagonalization with overlap
     ethr =  6.40E-13,  avg # of iterations =  1.5

     total cpu time spent up to now is       27.5 secs

     total energy              =      -0.47965395 Ry
     Harris-Foulkes estimate   =      -0.47965395 Ry
     estimated scf accuracy    <          8.9E-12 Ry

     iteration # 10     ecut=    32.00 Ry     beta=0.70
     Davidson diagonalization with overlap
     ethr =  6.40E-13,  avg # of iterations =  1.5

     total cpu time spent up to now is       30.0 secs

     End of self-consistent calculation

          k = 0.0000 0.0000 0.0500 (   775 PWs)   bands (ev):

    -3.4298  11.9516  11.9516  12.3450  12.5245

          k = 0.0000-0.0500 0.1000 (   778 PWs)   bands (ev):

    -3.3467  10.6492  11.2264  11.7914  12.0358

          k = 0.0000-0.1000 0.1500 (   771 PWs)   bands (ev):

    -3.1806   9.2159  10.5654  11.1754  11.3943

          k = 0.0000-0.1500 0.2000 (   776 PWs)   bands (ev):

    -2.9317   7.8386   9.9830  10.6082  10.8171

          k = 0.0000-0.2000 0.2500 (   782 PWs)   bands (ev):

    -2.6000   6.5321   9.4824  10.1151  10.3186

          k = 0.0000-0.2500 0.3000 (   784 PWs)   bands (ev):

    -2.1859   5.3021   9.0646   9.7018   9.9018

          k = 0.0000-0.3000 0.3500 (   783 PWs)   bands (ev):

    -1.6903   4.1518   8.7301   9.3700   9.5679

          k = 0.0000-0.3500 0.4000 (   790 PWs)   bands (ev):

    -1.1148   3.0843   8.4791   9.1208   9.3172

          k = 0.0000-0.4000 0.4500 (   790 PWs)   bands (ev):

    -0.4656   2.1068   8.3117   8.9545   9.1500

          k = 0.0000-0.4500 0.5000 (   786 PWs)   bands (ev):

     0.2129   1.2640   8.2279   8.8713   9.0663

          k =-0.0500 0.0500 0.0500 (   773 PWs)   bands (ev):

    -3.3882  11.3360  11.3360  11.5817  12.8998

          k =-0.0500-0.0500 0.1500 (   768 PWs)   bands (ev):

    -3.2221   9.8428  10.1028  11.5058  11.5537

          k =-0.0500-0.1000 0.2000 (   777 PWs)   bands (ev):

    -3.0146   8.5434   9.3975  10.8954  11.2475

          k =-0.0500-0.1500 0.2500 (   779 PWs)   bands (ev):

    -2.7243   7.2153   8.8520  10.3546  10.8215

          k =-0.0500-0.2000 0.3000 (   782 PWs)   bands (ev):

    -2.3514   5.9520   8.3936   9.8955  10.4148

          k =-0.0500-0.2500 0.3500 (   787 PWs)   bands (ev):

    -1.8965   4.7641   8.0187   9.5193  10.0679

          k =-0.0500-0.3000 0.4000 (   787 PWs)   bands (ev):

    -1.3606   3.6561   7.7271   9.2265   9.7927

          k =-0.0500-0.3500 0.4500 (   788 PWs)   bands (ev):

    -0.7470   2.6330   7.5187   9.0173   9.5942

          k =-0.0500-0.4000 0.5000 (   783 PWs)   bands (ev):

    -0.0696   1.7097   7.3936   8.8918   9.4744

          k =-0.0500 0.5500-0.4500 (   786 PWs)   bands (ev):

     0.4583   1.0997   7.3519   8.8499   9.4344

          k =-0.1000 0.1000 0.0500 (   770 PWs)   bands (ev):

    -3.2637   9.9280  10.6365  10.9124  12.3404

          k =-0.1000-0.1000 0.2500 (   780 PWs)   bands (ev):

    -2.7657   7.7985   8.2209  10.4457  11.1706

          k =-0.1000-0.1500 0.3000 (   778 PWs)   bands (ev):

    -2.4342   6.6455   7.5828   9.9776  10.9300

          k =-0.1000-0.2000 0.3500 (   786 PWs)   bands (ev):

    -2.0203   5.4426   7.1468   9.5739  10.6058

          k =-0.1000-0.2500 0.4000 (   784 PWs)   bands (ev):

    -1.5249   4.3024   6.8078   9.2470  10.3154

          k =-0.1000-0.3000 0.4500 (   785 PWs)   bands (ev):

    -0.9496   3.2400   6.5555   9.0005  10.0887

          k =-0.1000-0.3500 0.5000 (   783 PWs)   bands (ev):

    -0.3006   2.2650   6.3877   8.8356   9.9348

          k =-0.1000 0.6000-0.4500 (   784 PWs)   bands (ev):

     0.3790   1.4221   6.3039   8.7531   9.8572

          k =-0.1500 0.1500 0.0500 (   773 PWs)   bands (ev):

    -3.0561   8.5243  10.0119  10.3177  11.7210

          k =-0.1500 0.1000 0.1000 (   774 PWs)   bands (ev):

    -3.0976   9.1390   9.4385  10.2343  12.5010

          k =-0.1500-0.1500 0.3500 (   782 PWs)   bands (ev):

    -2.0616   5.9972   6.5221   9.5687  11.0431

          k =-0.1500-0.2000 0.4000 (   780 PWs)   bands (ev):

    -1.6071   4.9855   5.9777   9.2153  10.9164

          k =-0.1500-0.2500 0.4500 (   780 PWs)   bands (ev):

    -1.0717   3.9128   5.6548   8.9348  10.7052

          k =-0.1500-0.3000 0.5000 (   779 PWs)   bands (ev):

    -0.4586   2.9023   5.4363   8.7326  10.5308

          k =-0.1500 0.6500-0.4500 (   779 PWs)   bands (ev):

     0.2189   1.9838   5.3073   8.6107  10.4213

          k =-0.1500 0.6000-0.4000 (   782 PWs)   bands (ev):

     0.7522   1.3700   5.2645   8.5700  10.3842

          k =-0.2000 0.2000 0.0500 (   777 PWs)   bands (ev):

    -2.7658   7.1835   9.4687   9.7933  11.1791

          k =-0.2000 0.1500 0.1000 (   776 PWs)   bands (ev):

    -2.8487   7.8839   8.7564   9.6727  12.0976

          k =-0.2000-0.2000 0.4500 (   782 PWs)   bands (ev):

    -1.1125   4.4455   5.0449   8.9075  11.1682

          k =-0.2000-0.2500 0.5000 (   777 PWs)   bands (ev):

    -0.5383   3.5724   4.6072   8.6707  11.1597

          k =-0.2000 0.7000-0.4500 (   779 PWs)   bands (ev):

     0.1098   2.6374   4.4019   8.5110  11.0628

          k =-0.2000 0.6500-0.4000 (   776 PWs)   bands (ev):

     0.7924   1.8026   4.3077   8.4307  11.0019

          k =-0.2500 0.2500 0.0500 (   787 PWs)   bands (ev):

    -2.3929   5.9159   9.0084   9.3454  10.7193

          k =-0.2500 0.2000 0.1000 (   780 PWs)   bands (ev):

    -2.5171   6.5964   8.2473   9.1874  11.6402

          k =-0.2500 0.1500 0.1500 (   779 PWs)   bands (ev):

    -2.5585   7.1718   7.6160   9.1491  12.2136

          k =-0.2500 0.7500-0.4500 (   776 PWs)   bands (ev):

     0.0722   3.1447   3.8113   8.4762  11.5451

          k =-0.2500 0.7000-0.4000 (   776 PWs)   bands (ev):

     0.7480   2.4177   3.4940   8.3579  11.6484

          k =-0.2500 0.6500-0.3500 (   774 PWs)   bands (ev):

     1.2979   1.8169   3.4219   8.3183  11.6475

          k =-0.3000 0.3000 0.0500 (   790 PWs)   bands (ev):

    -1.9379   4.7259   8.6315   8.9770  10.3426

          k =-0.3000 0.2500 0.1000 (   788 PWs)   bands (ev):

    -2.1032   5.3739   7.8280   8.7805  11.2422

          k =-0.3000 0.2000 0.1500 (   781 PWs)   bands (ev):

    -2.1858   6.0640   7.0110   8.7035  11.9647

          k =-0.3000 0.7000-0.3500 (   772 PWs)   bands (ev):

     1.4244   2.0955   2.8945   8.2803  12.1738

          k =-0.3500 0.3500 0.0500 (   790 PWs)   bands (ev):

    -1.4020   3.6169   8.3382   8.6895  10.0494

          k =-0.3500 0.3000 0.1000 (   786 PWs)   bands (ev):

    -1.6076   4.2273   7.4934   8.4536  10.9187

          k =-0.3500 0.2500 0.1500 (   778 PWs)   bands (ev):

    -1.7311   4.9038   6.6133   8.3370  11.6469

          k =-0.3500 0.2000 0.2000 (   780 PWs)   bands (ev):

    -1.7723   5.4528   5.9927   8.2983  12.1730

          k =-0.4000 0.4000 0.0500 (   788 PWs)   bands (ev):

    -0.7883   2.5931   8.1287   8.4837   9.8400

          k =-0.4000 0.3500 0.1000 (   785 PWs)   bands (ev):

    -1.0323   3.1621   7.2426   8.2078  10.6742

          k =-0.4000 0.3000 0.1500 (   787 PWs)   bands (ev):

    -1.1956   3.8062   6.3143   8.0509  11.3807

          k =-0.4000 0.2500 0.2000 (   780 PWs)   bands (ev):

    -1.2774   4.4858   5.4854   7.9726  12.0598

          k =-0.4500 0.4500 0.0500 (   782 PWs)   bands (ev):

    -0.1110   1.6696   8.0029   8.3601   9.7143

          k =-0.4500 0.4000 0.1000 (   786 PWs)   bands (ev):

    -0.3832   2.1857   7.0754   8.0437  10.5105

          k =-0.4500 0.3500 0.1500 (   787 PWs)   bands (ev):

    -0.5822   2.7879   6.1028   7.8462  11.1857

          k =-0.4500 0.3000 0.2000 (   778 PWs)   bands (ev):

    -0.7028   3.4573   5.2021   7.7275  11.8696

          k =-0.4500 0.2500 0.2500 (   778 PWs)   bands (ev):

    -0.7431   3.9844   4.5969   7.6878  12.3828

          k = 0.5000-0.5000 0.0500 (   782 PWs)   bands (ev):

     0.4163   1.0601   7.9610   8.3189   9.6724

          k = 0.5000-0.5500 0.1000 (   783 PWs)   bands (ev):

     0.2959   1.3428   6.9918   7.9616  10.4285

          k = 0.5000-0.6000 0.1500 (   784 PWs)   bands (ev):

     0.0953   1.8666   5.9764   7.7231  11.0674

          k = 0.5000-0.6500 0.2000 (   777 PWs)   bands (ev):

    -0.0542   2.4937   5.0247   7.5638  11.7267

          k = 0.5000-0.7000 0.2500 (   775 PWs)   bands (ev):

    -0.1312   3.1569   4.1991   7.4838  12.3961

          k = 0.4500-0.5500 0.1500 (   786 PWs)   bands (ev):

     0.6263   1.2542   5.9343   7.6821  11.0278

          k = 0.4500-0.6000 0.2000 (   780 PWs)   bands (ev):

     0.6273   1.6529   4.9375   7.4818  11.6528

          k = 0.4500-0.6500 0.2500 (   777 PWs)   bands (ev):

     0.5459   2.2747   4.0355   7.3611  12.3250

          k = 0.4500-0.7000 0.3000 (   778 PWs)   bands (ev):

     0.5134   2.7673   3.4544   7.3208  12.8439

          k = 0.4000-0.6000 0.2500 (   778 PWs)   bands (ev):

     1.0881   1.6591   3.9858   7.3202  12.2957

          k = 0.4000-0.6500 0.3000 (   776 PWs)   bands (ev):

     1.1978   2.1035   3.1885   7.2392  12.9658

          k = 0.3500-0.6500 0.3500 (   778 PWs)   bands (ev):

     1.8018   1.8018   2.7638   7.1985  13.5563

          k = 0.0000 0.0000 0.1500 (   771 PWs)   bands (ev):

    -3.2637  10.4815  10.4815  10.8326  11.5696

          k = 0.0000-0.0500 0.2000 (   776 PWs)   bands (ev):

    -3.0976   9.2512   9.8153  10.4564  11.2707

          k = 0.0000-0.1000 0.2500 (   777 PWs)   bands (ev):

    -2.8487   7.8998   9.2308  10.0024  11.3278

          k = 0.0000-0.1500 0.3000 (   783 PWs)   bands (ev):

    -2.5170   6.6029   8.7291   9.5497  11.2366

          k = 0.0000-0.2000 0.3500 (   782 PWs)   bands (ev):

    -2.1030   5.3775   8.3107   9.1564  10.8219

          k = 0.0000-0.2500 0.4000 (   782 PWs)   bands (ev):

    -1.6075   4.2297   7.9758   8.8364  10.4888

          k = 0.0000-0.3000 0.4500 (   780 PWs)   bands (ev):

    -1.0321   3.1637   7.7246   8.5944  10.2387

          k = 0.0000-0.3500 0.5000 (   790 PWs)   bands (ev):

    -0.3829   2.1869   7.5571   8.4324  10.0718

          k = 0.0000-0.4000 0.5500 (   786 PWs)   bands (ev):

     0.2961   1.3440   7.4733   8.3512   9.9883

          k =-0.0500-0.0500 0.2500 (   771 PWs)   bands (ev):

    -2.8901   8.5033   8.8116  10.2153  10.8407

          k =-0.0500-0.1000 0.3000 (   776 PWs)   bands (ev):

    -2.5999   7.3004   8.1746   9.9080  10.8041

          k =-0.0500-0.1500 0.3500 (   784 PWs)   bands (ev):

    -2.2271   6.0575   7.7072   9.5122  10.8545

          k =-0.0500-0.2000 0.4000 (   782 PWs)   bands (ev):

    -1.7723   4.8774   7.3300   9.1614  10.6575

          k =-0.0500-0.2500 0.4500 (   780 PWs)   bands (ev):

    -1.2365   3.7733   7.0374   8.8818  10.4154

          k =-0.0500-0.3000 0.5000 (   784 PWs)   bands (ev):

    -0.6230   2.7522   6.8287   8.6800  10.2275

          k =-0.0500-0.3500 0.5500 (   781 PWs)   bands (ev):

     0.0545   1.8297   6.7034   8.5583  10.1117

          k =-0.0500 0.6000-0.4000 (   784 PWs)   bands (ev):

     0.5842   1.2182   6.6617   8.5177  10.0727

          k =-0.1000-0.1000 0.3500 (   782 PWs)   bands (ev):

    -2.2684   6.6241   7.0950   9.9977  10.4285

          k =-0.1000-0.1500 0.4000 (   779 PWs)   bands (ev):

    -1.8547   5.5645   6.5269   9.7709  10.3996

          k =-0.1000-0.2000 0.4500 (   783 PWs)   bands (ev):

    -1.3595   4.4485   6.1688   9.4704  10.3072

          k =-0.1000-0.2500 0.5000 (   780 PWs)   bands (ev):

    -0.7845   3.3943   5.9110   9.2312  10.1445

          k =-0.1000-0.3000 0.5500 (   781 PWs)   bands (ev):

    -0.1355   2.4228   5.7412   9.0690  10.0140

          k =-0.1000 0.6500-0.4000 (   781 PWs)   bands (ev):

     0.5451   1.5802   5.6566   8.9875   9.9448

          k =-0.1500 0.1500 0.1500 (   773 PWs)   bands (ev):

    -2.8902   8.5128   8.5128   9.1980  13.3928

          k =-0.1500-0.1500 0.4500 (   780 PWs)   bands (ev):

    -1.4005   4.9899   5.5563  10.0206  10.0373

          k =-0.1500-0.2000 0.5000 (   778 PWs)   bands (ev):

    -0.8655   4.0700   5.0856   9.7318  10.1275

          k =-0.1500-0.2500 0.5500 (   780 PWs)   bands (ev):

    -0.2528   3.0873   4.8419   9.5229  10.0691

          k =-0.1500 0.7000-0.4000 (   777 PWs)   bands (ev):

     0.4248   2.1768   4.7059   9.3974   9.9992

          k =-0.1500 0.6500-0.3500 (   782 PWs)   bands (ev):

     0.9620   1.5609   4.6615   9.3556   9.9722

          k =-0.2000 0.2000 0.1500 (   776 PWs)   bands (ev):

    -2.6000   7.2854   7.9688   8.5791  13.0042

          k =-0.2000-0.2000 0.5500 (   777 PWs)   bands (ev):

    -0.2922   3.6059   4.2440   9.6353  10.3298

          k =-0.2000 0.7500-0.4000 (   778 PWs)   bands (ev):

     0.3549   2.8269   3.8855   9.4943  10.4346

          k =-0.2000 0.7000-0.3500 (   775 PWs)   bands (ev):

     1.0389   2.0180   3.7649   9.4183  10.4309

          k =-0.2500 0.2500 0.1500 (   786 PWs)   bands (ev):

    -2.2272   6.0488   7.5080   8.1121  12.5516

          k =-0.2500 0.2000 0.2000 (   782 PWs)   bands (ev):

    -2.2686   6.6276   6.9913   7.9407  13.3359

          k =-0.2500 0.7500-0.3500 (   781 PWs)   bands (ev):

     1.0263   2.4729   3.2013   9.4071  10.8746

          k =-0.2500 0.7000-0.3000 (   780 PWs)   bands (ev):

     1.5916   1.9756   3.0107   9.3737  11.0303

          k =-0.3000 0.3000 0.1500 (   789 PWs)   bands (ev):

    -1.7725   4.8718   7.1309   7.7387  12.1771

          k =-0.3000 0.2500 0.2000 (   782 PWs)   bands (ev):

    -1.8550   5.5583   6.4572   7.4998  13.0910

          k =-0.3500 0.3500 0.1500 (   783 PWs)   bands (ev):

    -1.2369   3.7695   6.8374   7.4502  11.8849

          k =-0.3500 0.3000 0.2000 (   782 PWs)   bands (ev):

    -1.3599   4.4427   6.1065   7.1612  12.7946

          k =-0.3500 0.2500 0.2500 (   780 PWs)   bands (ev):

    -1.4010   4.9918   5.5053   7.0963  13.3850

          k =-0.4000 0.4000 0.1500 (   786 PWs)   bands (ev):

    -0.6234   2.7494   6.6277   7.2445  11.6759

          k =-0.4000 0.3500 0.2000 (   782 PWs)   bands (ev):

    -0.7851   3.3898   5.8506   6.9103  12.5599

          k =-0.4000 0.3000 0.2500 (   778 PWs)   bands (ev):

    -0.8662   4.0664   5.0489   6.7971  13.2918

          k = 0.5500-0.5500 0.1500 (   782 PWs)   bands (ev):

     0.0540   1.8274   6.5019   7.1211  11.5504

          k = 0.5500-0.6000 0.2000 (   782 PWs)   bands (ev):

    -0.1363   2.4192   5.6812   6.7438  12.4006

          k = 0.5500-0.6500 0.2500 (   782 PWs)   bands (ev):

    -0.2537   3.0829   4.8099   6.5865  13.1305

          k = 0.5500-0.7000 0.3000 (   777 PWs)   bands (ev):

    -0.2932   3.6070   4.2121   6.5385  13.6801

          k = 0.5000-0.5000 0.1500 (   780 PWs)   bands (ev):

     0.5843   1.2154   6.4600   7.0800  11.5085

          k = 0.5000-0.5500 0.2000 (   782 PWs)   bands (ev):

     0.5446   1.5767   5.5968   6.6607  12.3204

          k = 0.5000-0.6000 0.2500 (   782 PWs)   bands (ev):

     0.4238   2.1727   4.6754   6.4608  13.0229

          k = 0.5000-0.6500 0.3000 (   779 PWs)   bands (ev):

     0.3537   2.8245   3.8613   6.3688  13.7179

          k = 0.4500-0.5500 0.2500 (   782 PWs)   bands (ev):

     0.9622   1.5557   4.6313   6.4190  12.9861

          k = 0.4500-0.6000 0.3000 (   779 PWs)   bands (ev):

     1.0382   2.0138   3.7434   6.2845  13.6754

          k = 0.4500-0.6500 0.3500 (   785 PWs)   bands (ev):

     1.0251   2.4737   3.1775   6.2406  14.2252

          k = 0.4000-0.6000 0.3500 (   780 PWs)   bands (ev):

     1.5920   1.9735   2.9893   6.1981  14.3523

          k = 0.0000 0.0000 0.2500 (   771 PWs)   bands (ev):

    -2.9316   9.1469   9.1469   9.4882  10.4967

          k = 0.0000-0.0500 0.3000 (   773 PWs)   bands (ev):

    -2.6827   8.0041   8.5613   9.2245  10.2187

          k = 0.0000-0.1000 0.3500 (   782 PWs)   bands (ev):

    -2.3512   6.7388   8.0591   8.8918  10.3428

          k = 0.0000-0.1500 0.4000 (   781 PWs)   bands (ev):

    -1.9373   5.5259   7.6403   8.5366  10.6554

          k = 0.0000-0.2000 0.4500 (   778 PWs)   bands (ev):

    -1.4419   4.3843   7.3052   8.2320  11.0537

          k = 0.0000-0.2500 0.5000 (   778 PWs)   bands (ev):

    -0.8667   3.3218   7.0538   7.9974  11.2434

          k = 0.0000-0.3000 0.5500 (   781 PWs)   bands (ev):

    -0.2176   2.3468   6.8862   7.8391  11.0770

          k = 0.0000-0.3500 0.6000 (   784 PWs)   bands (ev):

     0.4624   1.5036   6.8024   7.7596  10.9936

          k =-0.0500-0.0500 0.3500 (   776 PWs)   bands (ev):

    -2.3926   7.3294   7.6625   9.0413   9.8619

          k =-0.0500-0.1000 0.4000 (   782 PWs)   bands (ev):

    -2.0199   6.2181   7.1030   8.8461   9.9142

          k =-0.0500-0.1500 0.4500 (   780 PWs)   bands (ev):

    -1.5653   5.0614   6.7162   8.5556  10.2412

          k =-0.0500-0.2000 0.5000 (   780 PWs)   bands (ev):

    -1.0298   3.9664   6.4211   8.2968  10.6719

          k =-0.0500-0.2500 0.5500 (   783 PWs)   bands (ev):

    -0.4165   2.9497   6.2114   8.1040  11.0234

          k =-0.0500-0.3000 0.6000 (   782 PWs)   bands (ev):

     0.2612   2.0290   6.0857   7.9863  11.0579

          k =-0.0500 0.6500-0.3500 (   787 PWs)   bands (ev):

     0.7940   1.4151   6.0439   7.9468  11.0395

          k =-0.1000-0.1000 0.4500 (   776 PWs)   bands (ev):

    -1.6065   5.6170   6.1171   8.9912   9.7040

          k =-0.1000-0.1500 0.5000 (   782 PWs)   bands (ev):

    -1.1116   4.6478   5.6256   8.8937   9.9165

          k =-0.1000-0.2000 0.5500 (   779 PWs)   bands (ev):

    -0.5369   3.6198   5.3477   8.7072  10.3493

          k =-0.1000-0.2500 0.6000 (   780 PWs)   bands (ev):

     0.1117   2.6569   5.1723   8.5631  10.7352

          k =-0.1000 0.7000-0.3500 (   783 PWs)   bands (ev):

     0.7939   1.8157   5.0860   8.4881  10.8399

          k =-0.1500-0.1500 0.5500 (   783 PWs)   bands (ev):

    -0.5772   4.1504   4.7454   9.1984   9.8046

          k =-0.1500-0.2000 0.6000 (   776 PWs)   bands (ev):

     0.0347   3.3216   4.3538   9.2056  10.1198

          k =-0.1500 0.7500-0.3500 (   779 PWs)   bands (ev):

     0.7120   2.4389   4.1926   9.1263  10.5274

          k =-0.1500 0.7000-0.3000 (   781 PWs)   bands (ev):

     1.2556   1.8221   4.1434   9.0943  10.6590

          k =-0.2000 0.8000-0.3500 (   775 PWs)   bands (ev):

     0.6795   2.9341   3.6111   9.6587  10.0667

          k =-0.2000 0.7500-0.3000 (   778 PWs)   bands (ev):

     1.3644   2.2691   3.3474   9.7482  10.4022

          k =-0.2500 0.2500 0.2500 (   784 PWs)   bands (ev):

    -1.8963   6.1666   6.1666   7.0669  14.3992

          k =-0.2500 0.7500-0.2500 (   787 PWs)   bands (ev):

     1.9690   1.9690   2.9215  10.3557  10.3711

          k =-0.3000 0.3000 0.2500 (   784 PWs)   bands (ev):

    -1.4422   5.1182   5.7893   6.5679  14.1786

          k =-0.3500 0.3500 0.2500 (   781 PWs)   bands (ev):

    -0.9073   4.0560   5.4958   6.2410  13.8936

          k =-0.3500 0.3000 0.3000 (   784 PWs)   bands (ev):

    -0.9481   4.6144   5.0040   6.0545  14.6744

          k = 0.6000-0.6000 0.2500 (   783 PWs)   bands (ev):

    -0.2946   3.0525   5.2861   6.0201  13.6865

          k = 0.6000-0.6500 0.3000 (   785 PWs)   bands (ev):

    -0.3744   3.7252   4.6340   5.7558  14.5919

          k = 0.5500-0.5500 0.2500 (   781 PWs)   bands (ev):

     0.3830   2.1372   5.1603   5.8902  13.5617

          k = 0.5500-0.6000 0.3000 (   781 PWs)   bands (ev):

     0.2732   2.7896   4.4481   5.5724  14.4576

          k = 0.5500-0.6500 0.3500 (   775 PWs)   bands (ev):

     0.2355   3.3134   3.8737   5.4980  15.0583

          k = 0.5000-0.5000 0.2500 (   784 PWs)   bands (ev):

     0.9203   1.5203   5.1183   5.8472  13.5201

          k = 0.5000-0.5500 0.3000 (   784 PWs)   bands (ev):

     0.9573   1.9545   4.3594   5.4832  14.3845

          k = 0.5000-0.6000 0.3500 (   780 PWs)   bands (ev):

     0.9113   2.5763   3.5833   5.3569  15.1164

          k = 0.4500-0.5500 0.3500 (   781 PWs)   bands (ev):

     1.4662   1.9678   3.5182   5.3112  15.0998

          k = 0.4500-0.6000 0.4000 (   781 PWs)   bands (ev):

     1.5897   2.2639   2.9866   5.2594  15.6874

          k = 0.0000 0.0000 0.3500 (   763 PWs)   bands (ev):

    -2.4340   7.9752   7.9752   8.3117   9.4931

          k = 0.0000-0.0500 0.4000 (   779 PWs)   bands (ev):

    -2.1026   6.9194   7.4725   8.1458   9.2571

          k = 0.0000-0.1000 0.4500 (   779 PWs)   bands (ev):

    -1.6889   5.7404   7.0535   7.9185   9.4340

          k = 0.0000-0.1500 0.5000 (   783 PWs)   bands (ev):

    -1.1938   4.6127   6.7182   7.6551   9.8303

          k = 0.0000-0.2000 0.5500 (   782 PWs)   bands (ev):

    -0.6188   3.5570   6.4668   7.4358  10.3459

          k = 0.0000-0.2500 0.6000 (   780 PWs)   bands (ev):

     0.0301   2.5854   6.2991   7.2839  10.9443

          k = 0.0000-0.3000 0.6500 (   786 PWs)   bands (ev):

     0.7116   1.7422   6.2152   7.2068  11.5899

          k =-0.0500-0.0500 0.4500 (   773 PWs)   bands (ev):

    -1.7302   6.3225   6.6708   8.0342   8.9659

          k =-0.0500-0.1000 0.5000 (   782 PWs)   bands (ev):

    -1.2759   5.3005   6.1921   7.9363   9.0786

          k =-0.0500-0.1500 0.5500 (   780 PWs)   bands (ev):

    -0.7408   4.2305   5.8871   7.7399   9.4839

          k =-0.0500-0.2000 0.6000 (   777 PWs)   bands (ev):

    -0.1278   3.2234   5.6748   7.5675  10.0303

          k =-0.0500-0.2500 0.6500 (   782 PWs)   bands (ev):

     0.5502   2.3063   5.5483   7.4574  10.6571

          k =-0.0500 0.7000-0.3000 (   781 PWs)   bands (ev):

     1.0876   1.6888   5.5063   7.4200  11.1678

          k =-0.1000-0.1000 0.5500 (   778 PWs)   bands (ev):

    -0.7815   4.7775   5.2980   8.1520   8.9563

          k =-0.1000-0.1500 0.6000 (   779 PWs)   bands (ev):

    -0.2074   3.8978   4.8863   8.1499   9.2458

          k =-0.1000-0.2000 0.6500 (   779 PWs)   bands (ev):

     0.4407   2.9617   4.6904   8.0538   9.7877

          k =-0.1000 0.7500-0.3000 (   783 PWs)   bands (ev):

     1.1250   2.1257   4.5991   7.9918  10.3975

          k =-0.1500-0.1500 0.6500 (   775 PWs)   bands (ev):

     0.4031   3.4786   4.0994   8.5271   9.2294

          k =-0.1500 0.8000-0.3000 (   777 PWs)   bands (ev):

     1.0793   2.7467   3.7935   8.6284   9.6270

          k =-0.1500 0.7500-0.2500 (   777 PWs)   bands (ev):

     1.6331   2.1406   3.7248   8.6257  10.0358

          k =-0.2000 0.8000-0.2500 (   780 PWs)   bands (ev):

     1.7575   2.4302   3.1921   9.1552   9.5613

          k = 0.6500-0.6500 0.3500 (   790 PWs)   bands (ev):

    -0.4148   4.3208   4.3208   5.3516  15.9070

          k = 0.6000-0.6000 0.3500 (   782 PWs)   bands (ev):

     0.1958   3.4491   4.1111   5.0017  15.8566

          k = 0.5500-0.5500 0.3500 (   782 PWs)   bands (ev):

     0.8724   2.5741   3.9852   4.8327  15.7384

          k = 0.5500-0.6000 0.4000 (   781 PWs)   bands (ev):

     0.8391   3.1036   3.5140   4.6442  16.5100

          k = 0.5000-0.5000 0.3500 (   786 PWs)   bands (ev):

     1.4242   1.9522   3.9433   4.7803  15.6980

          k = 0.5000-0.5500 0.4000 (   782 PWs)   bands (ev):

     1.5261   2.4165   3.3196   4.5101  16.5786

          k = 0.4500-0.5500 0.4500 (   787 PWs)   bands (ev):

     2.1380   2.1380   2.9021   4.4299  17.2233

          k = 0.0000 0.0000 0.4500 (   775 PWs)   bands (ev):

    -1.7714   6.9696   6.9696   7.3033   8.5972

          k = 0.0000-0.0500 0.5000 (   776 PWs)   bands (ev):

    -1.3581   6.0000   6.5505   7.2291   8.4162

          k = 0.0000-0.1000 0.5500 (   780 PWs)   bands (ev):

    -0.8633   4.9073   6.2151   7.0988   8.6501

          k = 0.0000-0.1500 0.6000 (   778 PWs)   bands (ev):

    -0.2888   3.8660   5.9635   6.9234   9.1159

          k = 0.0000-0.2000 0.6500 (   778 PWs)   bands (ev):

     0.3599   2.9010   5.7958   6.7870   9.7025

          k = 0.0000-0.2500 0.7000 (   780 PWs)   bands (ev):

     1.0435   2.0583   5.7119   6.7152  10.3221

          k =-0.0500-0.0500 0.5500 (   778 PWs)   bands (ev):

    -0.9042   5.4832   5.8417   7.1948   8.1924

          k =-0.0500-0.1000 0.6000 (   779 PWs)   bands (ev):

    -0.3697   4.5493   5.4451   7.1878   8.3663

          k =-0.0500-0.1500 0.6500 (   775 PWs)   bands (ev):

     0.2427   3.5677   5.2228   7.0797   8.8350

          k =-0.0500-0.2000 0.7000 (   780 PWs)   bands (ev):

     0.9209   2.6589   5.0939   6.9893   9.4295

          k =-0.0500 0.7500-0.2500 (   779 PWs)   bands (ev):

     1.4651   2.0368   5.0513   6.9565   9.8678

          k =-0.1000-0.1000 0.6500 (   774 PWs)   bands (ev):

     0.2034   4.1058   4.6425   7.4805   8.3151

          k =-0.1000-0.1500 0.7000 (   777 PWs)   bands (ev):

     0.8505   3.3172   4.3139   7.5647   8.6563

          k =-0.1000 0.8000-0.2500 (   776 PWs)   bands (ev):

     1.5372   2.5027   4.2033   7.5461   9.1803

          k =-0.1500 0.8500-0.2500 (   775 PWs)   bands (ev):

     1.5229   2.9748   3.6344   8.0235   8.6501

          k =-0.1500 0.8000-0.2000 (   778 PWs)   bands (ev):

     2.0943   2.4686   3.4511   8.1725   8.8196

          k = 0.5500-0.5500 0.4500 (   778 PWs)   bands (ev):

     1.5070   2.9777   2.9777   4.1458  17.9027

          k = 0.5000-0.5000 0.4500 (   784 PWs)   bands (ev):

     2.0961   2.4017   2.9358   4.0105  18.0261

          k = 0.0000 0.0000 0.5500 (   771 PWs)   bands (ev):

    -0.9452   6.1312   6.1312   6.4629   7.8272

          k = 0.0000-0.0500 0.6000 (   782 PWs)   bands (ev):

    -0.4510   5.2471   5.7957   6.4774   7.7071

          k = 0.0000-0.1000 0.6500 (   782 PWs)   bands (ev):

     0.1229   4.2411   5.5441   6.4380   7.9993

          k = 0.0000-0.1500 0.7000 (   774 PWs)   bands (ev):

     0.7711   3.2900   5.3764   6.3463   8.5197

          k = 0.0000-0.2000 0.7500 (   782 PWs)   bands (ev):

     1.4574   2.4496   5.2925   6.2880   9.0900

          k =-0.0500-0.0500 0.6500 (   778 PWs)   bands (ev):

     0.0828   4.8116   5.1773   6.5231   7.5488

          k =-0.0500-0.1000 0.7000 (   774 PWs)   bands (ev):

     0.6943   3.9659   4.8641   6.6025   7.7781

          k =-0.0500-0.1500 0.7500 (   782 PWs)   bands (ev):

     1.3723   3.0809   4.7253   6.5751   8.2755

          k =-0.0500 0.8000-0.2000 (   783 PWs)   bands (ev):

     1.9263   2.4542   4.6810   6.5556   8.6517

          k =-0.1000-0.1000 0.7500 (   777 PWs)   bands (ev):

     1.3392   3.6020   4.1567   6.9768   7.7650

          k =-0.1000 0.8500-0.2000 (   783 PWs)   bands (ev):

     2.0279   2.9228   3.9204   7.1320   8.0503

          k =-0.1500 0.8500-0.1500 (   784 PWs)   bands (ev):

     2.6389   2.6389   3.4831   7.6877   7.6877

          k = 0.0000 0.0000 0.6500 (   775 PWs)   bands (ev):

     0.0425   5.4602   5.4602   5.7906   7.1880

          k = 0.0000-0.0500 0.7000 (   778 PWs)   bands (ev):

     0.6154   4.6616   5.2086   5.8915   7.1260

          k = 0.0000-0.1000 0.7500 (   786 PWs)   bands (ev):

     1.2628   3.7445   5.0408   5.9360   7.4615

          k = 0.0000-0.1500 0.8000 (   785 PWs)   bands (ev):

     1.9522   2.9116   4.9569   5.9181   7.9416

          k =-0.0500-0.0500 0.7500 (   784 PWs)   bands (ev):

     1.2253   4.3079   4.6794   6.0193   7.0172

          k =-0.0500-0.1000 0.8000 (   780 PWs)   bands (ev):

     1.9025   3.5547   4.4511   6.1775   7.2536

          k =-0.0500 0.8500-0.1500 (   789 PWs)   bands (ev):

     2.4709   2.9299   4.3991   6.2042   7.5198

          k =-0.1000 0.9000-0.1500 (   784 PWs)   bands (ev):

     2.5864   3.2661   3.8680   6.6410   7.0971

          k = 0.0000 0.0000 0.7500 (   783 PWs)   bands (ev):

     1.1869   4.9569   4.9569   5.2864   6.6637

          k = 0.0000-0.0500 0.8000 (   786 PWs)   bands (ev):

     1.8327   4.2442   4.7891   5.4707   6.6291

          k = 0.0000-0.1000 0.8500 (   787 PWs)   bands (ev):

     2.5255   3.4358   4.7052   5.5804   6.8928

          k =-0.0500-0.0500 0.8500 (   787 PWs)   bands (ev):

     2.5069   3.9720   4.3514   5.6834   6.4786

          k =-0.0500 0.9000-0.1000 (   783 PWs)   bands (ev):

     3.0982   3.4313   4.2216   5.8708   6.4731

          k = 0.0000 0.0000 0.8500 (   784 PWs)   bands (ev):

     2.4761   4.6213   4.6213   4.9502   6.1570

          k = 0.0000-0.0500 0.9000 (   781 PWs)   bands (ev):

     3.1714   4.0021   4.5374   5.2054   5.9800

          k =-0.0500 0.9500-0.0500 (   775 PWs)   bands (ev):

     3.8041   3.8041   4.2538   5.5154   5.5154

          k = 0.0000 0.0000 0.9500 (   784 PWs)   bands (ev):

     3.8676   4.4535   4.4535   4.7821   5.2762

     the Fermi energy is    -0.2922 ev

!    total energy              =      -0.47965395 Ry
     Harris-Foulkes estimate   =      -0.47965395 Ry
     estimated scf accuracy    <          6.7E-13 Ry

     The total energy is the sum of the following terms:

     one-electron contribution =       0.27423775 Ry
     hartree contribution      =       0.00105250 Ry
     xc contribution           =      -0.29967011 Ry
     ewald contribution        =      -0.45527409 Ry
     smearing contrib. (-TS)   =       0.00000000 Ry

     convergence has been achieved in  10 iterations

     Forces acting on atoms (Ry/au):

     atom    1 type  1   force =     0.00000000    0.00000000    0.00000000

     Total force =     0.000000     Total SCF correction =     0.000000


     entering subroutine stress ...

          total   stress  (Ry/bohr**3)                   (kbar)     P=      -15.02
  -0.00010210  -0.00000000   0.00000000        -15.02     -0.00      0.00
  -0.00000000  -0.00010210  -0.00000000         -0.00    -15.02     -0.00
   0.00000000  -0.00000000  -0.00010210          0.00     -0.00    -15.02


     Writing output data file Na.save
 
     init_run     :      0.90s CPU      0.94s WALL (       1 calls)
     electrons    :     28.45s CPU     29.04s WALL (       1 calls)
     forces       :      0.00s CPU      0.01s WALL (       1 calls)
     stress       :      0.04s CPU      0.04s WALL (       1 calls)

     Called by init_run:
     wfcinit      :      0.84s CPU      0.88s WALL (       1 calls)
     potinit      :      0.01s CPU      0.01s WALL (       1 calls)

     Called by electrons:
     c_bands      :     23.60s CPU     24.00s WALL (      11 calls)
     sum_band     :      4.70s CPU      4.83s WALL (      11 calls)
     v_of_rho     :      0.05s CPU      0.06s WALL (      11 calls)
     mix_rho      :      0.04s CPU      0.04s WALL (      11 calls)

     Called by c_bands:
     cegterg      :     23.43s CPU     23.80s WALL (    2750 calls)

     Called by *egterg:
     h_psi        :     21.38s CPU     21.82s WALL (    8885 calls)
     g_psi        :      0.32s CPU      0.26s WALL (    5885 calls)
     cdiaghg      :      0.65s CPU      0.65s WALL (    8385 calls)

     Called by h_psi:

     General routines
     fft          :      0.11s CPU      0.11s WALL (      81 calls)
     ffts         :      0.01s CPU      0.01s WALL (      22 calls)
     fftw         :     22.06s CPU     22.08s WALL (   84658 calls)
     interpolate  :      0.03s CPU      0.04s WALL (      22 calls)
     davcio       :      0.17s CPU      0.21s WALL (    8750 calls)
 
     Parallel routines
     fft_scatter  :      1.85s CPU      1.80s WALL (   84761 calls)
     EXX routines
 
     PWSCF        :    29.82s CPU        30.52s WALL

 
   This run was terminated on:  11:27:43   5Jul2013            

=------------------------------------------------------------------------------=
   JOB DONE.
=------------------------------------------------------------------------------=
