
     Program PWSCF v.5.0        starts on 17Aug2012 at 10:39:36 

     This program is part of the open-source Quantum ESPRESSO suite
     for quantum simulation of materials; please cite
         "P. Giannozzi et al., J. Phys.:Condens. Matter 21 395502 (2009);
          URL http://www.quantum-espresso.org", 
     in publications or presentations arising from this work. More details at
     http://www.quantum-espresso.org/quote.php

     Parallel version (MPI), running on     1 processors

     Current dimensions of program PWSCF are:
     Max number of different atomic species (ntypx) = 10
     Max number of k-points (npk) =  40000
     Max angular momentum in pseudopotentials (lmaxx) =  3
     Waiting for input...
     Reading input from standard input

     Atomic positions and unit cell read from directory:
     ./raw/Na.save/
 

     Subspace diagonalization in iterative solution of the eigenvalue problem:
     a serial algorithm will be used

 kpoint style unhandled: 
 none                                                                           
  
 
     G-vector sticks info
     --------------------
     sticks:   dense  smooth     PW     G-vecs:    dense   smooth      PW
     Sum         713     713    265                12113    12113    2779
 


     bravais-lattice index     =            3
     lattice parameter (alat)  =       7.9935  a.u.
     unit-cell volume          =     255.3765 (a.u.)^3
     number of atoms/cell      =            1
     number of atomic types    =            1
     number of electrons       =         1.00
     number of Kohn-Sham states=            8
     kinetic-energy cutoff     =      50.0000  Ry
     charge density cutoff     =     200.0000  Ry
     Exchange-correlation      = SLA  PZ   NOGX NOGC ( 1 1 0 0 0)
     EXX-fraction              =        0.00

     celldm(1)=   7.993500  celldm(2)=   0.000000  celldm(3)=   0.000000
     celldm(4)=   0.000000  celldm(5)=   0.000000  celldm(6)=   0.000000

     crystal axes: (cart. coord. in units of alat)
               a(1) = (   0.500000   0.500000   0.500000 )  
               a(2) = (  -0.500000   0.500000   0.500000 )  
               a(3) = (  -0.500000  -0.500000   0.500000 )  

     reciprocal axes: (cart. coord. in units 2 pi/alat)
               b(1) = (  1.000000  0.000000  1.000000 )  
               b(2) = ( -1.000000  1.000000  0.000000 )  
               b(3) = (  0.000000 -1.000000  1.000000 )  


     PseudoPot. # 1 for Na read from file:
     ./pseudo/Na.cpi.UPF
     MD5 check sum: be28e8dfdc1171974bc59dc2f2debaec
     Pseudo is Norm-conserving, Zval =  1.0
     Generated by new atomic code, or converted to UPF format
     Using radial grid of  485 points,  0 beta functions with: 

     atomic species   valence    mass     pseudopotential
        Na             1.00    26.00000     Na( 1.00)

     48 Sym. Ops., with inversion, found



   Cartesian axes

     site n.     atom                  positions (alat units)
         1           Na  tau(   1) = (   0.0000000   0.0000000   0.0000000  )

     number of k points=   101  gaussian smearing, width (Ry)=  0.0000

     Number of k-points >= 100: set verbosity='high' to print them.

     Dense  grid:    12113 G-vectors     FFT dimensions: (  32,  32,  32)

     Largest allocated arrays     est. size (Mb)     dimensions
        Kohn-Sham Wavefunctions         0.19 Mb     (   1537,    8)
        NL pseudopotentials             0.00 Mb     (   1537,    0)
        Each V/rho on FFT grid          0.50 Mb     (  32768)
        Each G-vector array             0.09 Mb     (  12113)
        G-vector shells                 0.00 Mb     (    150)
     Largest temporary arrays     est. size (Mb)     dimensions
        Auxiliary wavefunctions         0.75 Mb     (   1537,   32)
        Each subspace H/S matrix        0.02 Mb     (  32,  32)
        Each <psi_i|beta_j> matrix      0.00 Mb     (      0,    8)

     The potential is recalculated from file :
     ./raw/Na.save/charge-density.dat

     Starting wfc are    1 randomized atomic wfcs

     total cpu time spent up to now is        0.8 secs

     per-process dynamical memory:     9.8 Mb

     Band Structure Calculation
     Davidson diagonalization with overlap

     ethr =  1.00E-13,  avg # of iterations = 26.8

     total cpu time spent up to now is       23.5 secs

     End of band structure calculation

          k = 0.0000 0.0000 0.0000     band energies (ev):

    -3.4506  12.5033  12.5033  12.5033  13.1374  13.1374  13.1374  13.1450

          k = 0.0200 0.0000 0.0000     band energies (ev):

    -3.4473  12.3655  12.3655  12.5067  12.8312  12.9450  13.1609  13.1609

          k = 0.0400 0.0000 0.0000     band energies (ev):

    -3.4373  12.0978  12.0978  12.5054  12.5168  12.7429  13.1732  13.1732

          k = 0.0600 0.0000 0.0000     band energies (ev):

    -3.4207  11.8027  11.8027  12.1862  12.5336  12.5360  13.1904  13.1904

          k = 0.0800 0.0000 0.0000     band energies (ev):

    -3.3974  11.5031  11.5031  11.8737  12.3250  12.5571  13.2139  13.2139

          k = 0.1000 0.0000 0.0000     band energies (ev):

    -3.3675  11.2054  11.2054  11.5679  12.1112  12.5874  13.2441  13.2441

          k = 0.1200 0.0000 0.0000     band energies (ev):

    -3.3310  10.9118  10.9118  11.2687  11.8952  12.6243  13.2809  13.2809

          k = 0.1400 0.0000 0.0000     band energies (ev):

    -3.2878  10.6234  10.6234  10.9763  11.6781  12.6680  13.3244  13.3244

          k = 0.1600 0.0000 0.0000     band energies (ev):

    -3.2380  10.3409  10.3409  10.6906  11.4607  12.7184  13.3746  13.3746

          k = 0.1800 0.0000 0.0000     band energies (ev):

    -3.1815  10.0644  10.0644  10.4117  11.2437  12.7756  13.4315  13.4315

          k = 0.2000 0.0000 0.0000     band energies (ev):

    -3.1184   9.7942   9.7942  10.1394  11.0278  12.8394  13.4951  13.4951

          k = 0.2200 0.0000 0.0000     band energies (ev):

    -3.0487   9.5304   9.5304   9.8739  10.8136  12.9100  13.5653  13.5653

          k = 0.2400 0.0000 0.0000     band energies (ev):

    -2.9723   9.2730   9.2730   9.6151  10.6016  12.9873  13.6422  13.6422

          k = 0.2600 0.0000 0.0000     band energies (ev):

    -2.8893   9.0222   9.0222   9.3630  10.3922  13.0714  13.7258  13.7258

          k = 0.2800 0.0000 0.0000     band energies (ev):

    -2.7997   8.7779   8.7779   9.1176  10.1859  13.1621  13.8161  13.8161

          k = 0.3000 0.0000 0.0000     band energies (ev):

    -2.7035   8.5403   8.5403   8.8789   9.9831  13.2596  13.9131  13.9131

          k = 0.3200 0.0000 0.0000     band energies (ev):

    -2.6007   8.3092   8.3092   8.6470   9.7840  13.3638  14.0167  14.0167

          k = 0.3400 0.0000 0.0000     band energies (ev):

    -2.4912   8.0848   8.0848   8.4218   9.5889  13.4747  14.1270  14.1270

          k = 0.3600 0.0000 0.0000     band energies (ev):

    -2.3752   7.8670   7.8670   8.2033   9.3981  13.5923  14.2440  14.2440

          k = 0.3800 0.0000 0.0000     band energies (ev):

    -2.2525   7.6559   7.6559   7.9915   9.2118  13.7167  14.3677  14.3677

          k = 0.4000 0.0000 0.0000     band energies (ev):

    -2.1233   7.4514   7.4514   7.7865   9.0300  13.8478  14.4980  14.4980

          k = 0.4200 0.0000 0.0000     band energies (ev):

    -1.9875   7.2537   7.2537   7.5882   8.8531  13.9856  14.6350  14.6350

          k = 0.4400 0.0000 0.0000     band energies (ev):

    -1.8451   7.0626   7.0626   7.3966   8.6811  14.1301  14.7786  14.7786

          k = 0.4600 0.0000 0.0000     band energies (ev):

    -1.6962   6.8781   6.8781   7.2117   8.5142  14.2813  14.9289  14.9289

          k = 0.4800 0.0000 0.0000     band energies (ev):

    -1.5407   6.7004   6.7004   7.0335   8.3523  14.4393  15.0859  15.0859

          k = 0.5000 0.0000 0.0000     band energies (ev):

    -1.3787   6.5294   6.5294   6.8621   8.1957  14.6040  15.0948  15.2495

          k = 0.5200 0.0000 0.0000     band energies (ev):

    -1.2102   6.3650   6.3650   6.6974   8.0443  14.7096  14.7754  15.4197

          k = 0.5400 0.0000 0.0000     band energies (ev):

    -1.0352   6.2074   6.2074   6.5394   7.8981  14.2954  14.9535  15.5965

          k = 0.5600 0.0000 0.0000     band energies (ev):

    -0.8537   6.0564   6.0564   6.3881   7.7573  13.8668  15.1384  15.7800

          k = 0.5800 0.0000 0.0000     band energies (ev):

    -0.6657   5.9122   5.9122   6.2436   7.6217  13.4320  15.3299  15.9701

          k = 0.6000 0.0000 0.0000     band energies (ev):

    -0.4714   5.7746   5.7746   6.1058   7.4914  12.9958  15.5282  16.1667

          k = 0.6200 0.0000 0.0000     band energies (ev):

    -0.2706   5.6438   5.6438   5.9747   7.3662  12.5611  15.7332  16.3700

          k = 0.6400 0.0000 0.0000     band energies (ev):

    -0.0635   5.5197   5.5197   5.8503   7.2460  12.1299  15.9450  16.5798

          k = 0.6600 0.0000 0.0000     band energies (ev):

     0.1500   5.4022   5.4022   5.7326   7.1308  11.7036  16.1634  16.7961

          k = 0.6800 0.0000 0.0000     band energies (ev):

     0.3696   5.2915   5.2915   5.6217   7.0202  11.2833  16.3886  17.0189

          k = 0.7000 0.0000 0.0000     band energies (ev):

     0.5955   5.1875   5.1875   5.5175   6.9139  10.8700  16.6204  17.2482

          k = 0.7200 0.0000 0.0000     band energies (ev):

     0.8275   5.0902   5.0902   5.4200   6.8115  10.4646  16.8590  17.4839

          k = 0.7400 0.0000 0.0000     band energies (ev):

     1.0656   4.9996   4.9996   5.3293   6.7123  10.0682  17.1043  17.7260

          k = 0.7600 0.0000 0.0000     band energies (ev):

     1.3095   4.9157   4.9157   5.2452   6.6154   9.6820  17.3563  17.9743

          k = 0.7800 0.0000 0.0000     band energies (ev):

     1.5593   4.8385   4.8385   5.1679   6.5194   9.3078  17.6151  18.2288

          k = 0.8000 0.0000 0.0000     band energies (ev):

     1.8147   4.7680   4.7680   5.0973   6.4227   8.9476  17.8805  18.4893

          k = 0.8200 0.0000 0.0000     band energies (ev):

     2.0754   4.7042   4.7042   5.0334   6.3224   8.6044  18.1526  18.7555

          k = 0.8400 0.0000 0.0000     band energies (ev):

     2.3413   4.6472   4.6472   4.9763   6.2149   8.2824  18.4314  19.0273

          k = 0.8600 0.0000 0.0000     band energies (ev):

     2.6119   4.5968   4.5968   4.9259   6.0953   7.9868  18.7169  19.3040

          k = 0.8800 0.0000 0.0000     band energies (ev):

     2.8868   4.5532   4.5532   4.8822   5.9576   7.7242  19.0090  19.5848

          k = 0.9000 0.0000 0.0000     band energies (ev):

     3.1652   4.5163   4.5163   4.8452   5.7962   7.5011  19.3077  19.8685

          k = 0.9200 0.0000 0.0000     band energies (ev):

     3.4460   4.4861   4.4861   4.8149   5.6074   7.3221  19.6130  20.1524

          k = 0.9400 0.0000 0.0000     band energies (ev):

     3.7275   4.4626   4.4626   4.7914   5.3921   7.1882  19.9246  20.4312

          k = 0.9600 0.0000 0.0000     band energies (ev):

     4.0062   4.4458   4.4458   4.7746   5.1564   7.0970  20.2420  20.6926

          k = 0.9800 0.0000 0.0000     band energies (ev):

     4.2703   4.4358   4.4358   4.7645   4.9158   7.0444  20.5623  20.9047

          k = 1.0000 0.0000 0.0000     band energies (ev):

     4.4324   4.4324   4.4324   4.7612   4.7612   7.0273  20.8181  20.9949

          k = 1.0200 0.0000 0.0000     band energies (ev):

     4.2703   4.4358   4.4358   4.7645   4.9158   7.0444  20.5623  20.9047

          k = 1.0400 0.0000 0.0000     band energies (ev):

     4.0062   4.4458   4.4458   4.7746   5.1564   7.0970  20.2420  20.6926

          k = 1.0600 0.0000 0.0000     band energies (ev):

     3.7275   4.4626   4.4626   4.7914   5.3921   7.1882  19.9246  20.4312

          k = 1.0800 0.0000 0.0000     band energies (ev):

     3.4460   4.4861   4.4861   4.8149   5.6074   7.3221  19.6130  20.1524

          k = 1.1000 0.0000 0.0000     band energies (ev):

     3.1652   4.5163   4.5163   4.8452   5.7962   7.5011  19.3077  19.8685

          k = 1.1200 0.0000 0.0000     band energies (ev):

     2.8868   4.5532   4.5532   4.8822   5.9576   7.7242  19.0090  19.5848

          k = 1.1400 0.0000 0.0000     band energies (ev):

     2.6119   4.5968   4.5968   4.9259   6.0953   7.9868  18.7169  19.3040

          k = 1.1600 0.0000 0.0000     band energies (ev):

     2.3413   4.6472   4.6472   4.9763   6.2149   8.2824  18.4314  19.0273

          k = 1.1800 0.0000 0.0000     band energies (ev):

     2.0754   4.7042   4.7042   5.0334   6.3224   8.6044  18.1526  18.7555

          k = 1.2000 0.0000 0.0000     band energies (ev):

     1.8147   4.7680   4.7680   5.0973   6.4227   8.9476  17.8805  18.4893

          k = 1.2200 0.0000 0.0000     band energies (ev):

     1.5593   4.8385   4.8385   5.1679   6.5194   9.3078  17.6151  18.2288

          k = 1.2400 0.0000 0.0000     band energies (ev):

     1.3095   4.9157   4.9157   5.2452   6.6154   9.6820  17.3563  17.9743

          k = 1.2600 0.0000 0.0000     band energies (ev):

     1.0656   4.9996   4.9996   5.3293   6.7123  10.0682  17.1043  17.7260

          k = 1.2800 0.0000 0.0000     band energies (ev):

     0.8275   5.0902   5.0902   5.4200   6.8115  10.4646  16.8590  17.4839

          k = 1.3000 0.0000 0.0000     band energies (ev):

     0.5955   5.1875   5.1875   5.5175   6.9139  10.8700  16.6204  17.2482

          k = 1.3200 0.0000 0.0000     band energies (ev):

     0.3696   5.2915   5.2915   5.6217   7.0202  11.2833  16.3886  17.0189

          k = 1.3400 0.0000 0.0000     band energies (ev):

     0.1500   5.4022   5.4022   5.7326   7.1308  11.7036  16.1634  16.7961

          k = 1.3600 0.0000 0.0000     band energies (ev):

    -0.0635   5.5197   5.5197   5.8503   7.2460  12.1299  15.9450  16.5798

          k = 1.3800 0.0000 0.0000     band energies (ev):

    -0.2706   5.6438   5.6438   5.9747   7.3662  12.5611  15.7332  16.3700

          k = 1.4000 0.0000 0.0000     band energies (ev):

    -0.4714   5.7746   5.7746   6.1058   7.4914  12.9958  15.5282  16.1667

          k = 1.4200 0.0000 0.0000     band energies (ev):

    -0.6657   5.9122   5.9122   6.2436   7.6217  13.4320  15.3299  15.9701

          k = 1.4400 0.0000 0.0000     band energies (ev):

    -0.8537   6.0564   6.0564   6.3881   7.7573  13.8668  15.1384  15.7800

          k = 1.4600 0.0000 0.0000     band energies (ev):

    -1.0352   6.2074   6.2074   6.5394   7.8981  14.2954  14.9535  15.5965

          k = 1.4800 0.0000 0.0000     band energies (ev):

    -1.2102   6.3650   6.3650   6.6974   8.0443  14.7096  14.7754  15.4197

          k = 1.5000 0.0000 0.0000     band energies (ev):

    -1.3787   6.5294   6.5294   6.8621   8.1957  14.6040  15.0948  15.2495

          k = 1.5200 0.0000 0.0000     band energies (ev):

    -1.5407   6.7004   6.7004   7.0335   8.3523  14.4393  15.0859  15.0859

          k = 1.5400 0.0000 0.0000     band energies (ev):

    -1.6962   6.8781   6.8781   7.2117   8.5142  14.2813  14.9289  14.9289

          k = 1.5600 0.0000 0.0000     band energies (ev):

    -1.8451   7.0626   7.0626   7.3966   8.6811  14.1301  14.7786  14.7786

          k = 1.5800 0.0000 0.0000     band energies (ev):

    -1.9875   7.2537   7.2537   7.5882   8.8531  13.9856  14.6350  14.6350

          k = 1.6000 0.0000 0.0000     band energies (ev):

    -2.1233   7.4514   7.4514   7.7865   9.0300  13.8478  14.4980  14.4980

          k = 1.6200 0.0000 0.0000     band energies (ev):

    -2.2525   7.6559   7.6559   7.9915   9.2118  13.7167  14.3677  14.3677

          k = 1.6400 0.0000 0.0000     band energies (ev):

    -2.3752   7.8670   7.8670   8.2033   9.3981  13.5923  14.2440  14.2440

          k = 1.6600 0.0000 0.0000     band energies (ev):

    -2.4912   8.0848   8.0848   8.4218   9.5889  13.4747  14.1270  14.1270

          k = 1.6800 0.0000 0.0000     band energies (ev):

    -2.6007   8.3092   8.3092   8.6470   9.7840  13.3638  14.0167  14.0167

          k = 1.7000 0.0000 0.0000     band energies (ev):

    -2.7035   8.5403   8.5403   8.8789   9.9831  13.2596  13.9131  13.9131

          k = 1.7200 0.0000 0.0000     band energies (ev):

    -2.7997   8.7779   8.7779   9.1176  10.1859  13.1621  13.8161  13.8161

          k = 1.7400 0.0000 0.0000     band energies (ev):

    -2.8893   9.0222   9.0222   9.3630  10.3922  13.0714  13.7258  13.7258

          k = 1.7600 0.0000 0.0000     band energies (ev):

    -2.9723   9.2730   9.2730   9.6151  10.6016  12.9873  13.6422  13.6422

          k = 1.7800 0.0000 0.0000     band energies (ev):

    -3.0487   9.5304   9.5304   9.8739  10.8136  12.9100  13.5653  13.5653

          k = 1.8000 0.0000 0.0000     band energies (ev):

    -3.1184   9.7942   9.7942  10.1394  11.0278  12.8394  13.4951  13.4951

          k = 1.8200 0.0000 0.0000     band energies (ev):

    -3.1815  10.0644  10.0644  10.4117  11.2437  12.7756  13.4315  13.4315

          k = 1.8400 0.0000 0.0000     band energies (ev):

    -3.2380  10.3409  10.3409  10.6906  11.4607  12.7184  13.3746  13.3746

          k = 1.8600 0.0000 0.0000     band energies (ev):

    -3.2878  10.6234  10.6234  10.9763  11.6781  12.6680  13.3244  13.3244

          k = 1.8800 0.0000 0.0000     band energies (ev):

    -3.3310  10.9118  10.9118  11.2687  11.8952  12.6243  13.2809  13.2809

          k = 1.9000 0.0000 0.0000     band energies (ev):

    -3.3675  11.2054  11.2054  11.5679  12.1112  12.5874  13.2441  13.2441

          k = 1.9200 0.0000 0.0000     band energies (ev):

    -3.3974  11.5031  11.5031  11.8737  12.3250  12.5571  13.2139  13.2139

          k = 1.9400 0.0000 0.0000     band energies (ev):

    -3.4207  11.8027  11.8027  12.1862  12.5336  12.5360  13.1904  13.1904

          k = 1.9600 0.0000 0.0000     band energies (ev):

    -3.4373  12.0978  12.0978  12.5054  12.5168  12.7429  13.1732  13.1732

          k = 1.9800 0.0000 0.0000     band energies (ev):

    -3.4473  12.3655  12.3655  12.5067  12.8312  12.9450  13.1609  13.1609

          k = 2.0000 0.0000 0.0000     band energies (ev):

    -3.4506  12.5033  12.5033  12.5033  13.1374  13.1374  13.1374  13.1450

     the Fermi energy is    -1.3788 ev

     Writing output data file Na.save
 
     init_run     :      0.04s CPU      0.05s WALL (       1 calls)
     electrons    :     21.47s CPU     22.72s WALL (       1 calls)

     Called by init_run:
     wfcinit      :      0.00s CPU      0.00s WALL (       1 calls)
     potinit      :      0.00s CPU      0.01s WALL (       1 calls)

     Called by electrons:
     c_bands      :     21.47s CPU     22.71s WALL (       1 calls)
     v_of_rho     :      0.00s CPU      0.00s WALL (       1 calls)

     Called by c_bands:
     cegterg      :     20.41s CPU     21.57s WALL (     203 calls)

     Called by *egterg:
     h_psi        :     16.58s CPU     17.89s WALL (    3015 calls)
     g_psi        :      0.29s CPU      0.34s WALL (    2711 calls)
     cdiaghg      :      0.95s CPU      0.83s WALL (    2812 calls)

     Called by h_psi:

     General routines
     fft          :      0.00s CPU      0.00s WALL (       3 calls)
     fftw         :     14.63s CPU     15.74s WALL (   31872 calls)
     davcio       :      0.06s CPU      0.11s WALL (     202 calls)
 
     Parallel routines
     fft_scatter  :      1.77s CPU      1.73s WALL (   31875 calls)
     EXX routines
 
     PWSCF        :    22.68s CPU        24.08s WALL

 
   This run was terminated on:  10:40: 0  17Aug2012            

=------------------------------------------------------------------------------=
   JOB DONE.
=------------------------------------------------------------------------------=
