
     Program PWSCF v.5.0        starts on  5Jul2013 at 13:22: 8 

     This program is part of the open-source Quantum ESPRESSO suite
     for quantum simulation of materials; please cite
         "P. Giannozzi et al., J. Phys.:Condens. Matter 21 395502 (2009);
          URL http://www.quantum-espresso.org", 
     in publications or presentations arising from this work. More details at
     http://www.quantum-espresso.org/quote.php

     Parallel version (MPI), running on     1 processors

     Current dimensions of program PWSCF are:
     Max number of different atomic species (ntypx) = 10
     Max number of k-points (npk) =  40000
     Max angular momentum in pseudopotentials (lmaxx) =  3
     Waiting for input...
     Reading input from standard input

     Subspace diagonalization in iterative solution of the eigenvalue problem:
     a serial algorithm will be used

 kpoint style unhandled: 
 none                                                                           
  
 
     G-vector sticks info
     --------------------
     sticks:   dense  smooth     PW     G-vecs:    dense   smooth      PW
     Sum         517     253     97                 7823     2741     645
 

     Title: 
     Gold_fcc                                                                   


     bravais-lattice index     =            2
     lattice parameter (alat)  =       7.7100  a.u.
     unit-cell volume          =     114.5785 (a.u.)^3
     number of atoms/cell      =            1
     number of atomic types    =            1
     number of electrons       =        11.00
     number of Kohn-Sham states=           10
     kinetic-energy cutoff     =      32.0000  Ry
     charge density cutoff     =     256.0000  Ry
     convergence threshold     =      1.0E-12
     mixing beta               =       0.7000
     number of iterations used =            8  plain     mixing
     Exchange-correlation      =  SLA  PW   PBE  PBE ( 1 4 3 4 0)
     EXX-fraction              =        0.00

     celldm(1)=   7.710000  celldm(2)=   0.000000  celldm(3)=   0.000000
     celldm(4)=   0.000000  celldm(5)=   0.000000  celldm(6)=   0.000000

     crystal axes: (cart. coord. in units of alat)
               a(1) = (  -0.500000   0.000000   0.500000 )  
               a(2) = (   0.000000   0.500000   0.500000 )  
               a(3) = (  -0.500000   0.500000   0.000000 )  

     reciprocal axes: (cart. coord. in units 2 pi/alat)
               b(1) = ( -1.000000 -1.000000  1.000000 )  
               b(2) = (  1.000000  1.000000  1.000000 )  
               b(3) = ( -1.000000  1.000000 -1.000000 )  


     PseudoPot. # 1 for Au read from file:
     ./pseudo/Au.pbe-van_ak.UPF
     MD5 check sum: 9040a7dcfae4ad769d923573f5dfd312
     Pseudo is Ultrasoft, Zval = 11.0
     Generated by new atomic code, or converted to UPF format
     Using radial grid of  895 points,  6 beta functions with: 
                l(1) =   0
                l(2) =   0
                l(3) =   1
                l(4) =   1
                l(5) =   2
                l(6) =   2
     Q(r) pseudized with  8 coefficients,  rinner =    1.600   1.800   1.600
                                                       1.600   1.800

     atomic species   valence    mass     pseudopotential
        Au            11.00   196.96600     Au( 1.00)

     48 Sym. Ops., with inversion, found



   Cartesian axes

     site n.     atom                  positions (alat units)
         1           Au  tau(   1) = (   0.0000000   0.0000000   0.0000000  )

     number of k points=   408  gaussian smearing, width (Ry)=  0.0000

     Number of k-points >= 100: set verbosity='high' to print them.

     Dense  grid:     7823 G-vectors     FFT dimensions: (  27,  27,  27)

     Smooth grid:     2741 G-vectors     FFT dimensions: (  20,  20,  20)

     Largest allocated arrays     est. size (Mb)     dimensions
        Kohn-Sham Wavefunctions         0.06 Mb     (    361,   10)
        NL pseudopotentials             0.10 Mb     (    361,   18)
        Each V/rho on FFT grid          0.30 Mb     (  19683)
        Each G-vector array             0.06 Mb     (   7823)
        G-vector shells                 0.00 Mb     (    130)
     Largest temporary arrays     est. size (Mb)     dimensions
        Auxiliary wavefunctions         0.22 Mb     (    361,   40)
        Each subspace H/S matrix        0.02 Mb     (  40,  40)
        Each <psi_i|beta_j> matrix      0.00 Mb     (     18,   10)
        Arrays for rho mixing           2.40 Mb     (  19683,   8)

     Initial potential from superposition of free atoms

     starting charge   10.98917, renormalised to   11.00000
     Starting wfc are    9 randomized atomic wfcs

     total cpu time spent up to now is        1.8 secs

     per-process dynamical memory:    11.6 Mb

     Self-consistent Calculation

     iteration #  1     ecut=    32.00 Ry     beta=0.70
     Davidson diagonalization with overlap
     ethr =  1.00E-02,  avg # of iterations =  4.1

     Threshold (ethr) on eigenvalues was too large:
     Diagonalizing with lowered threshold

     Davidson diagonalization with overlap
     ethr =  2.62E-04,  avg # of iterations =  1.1

     total cpu time spent up to now is       10.0 secs

     total energy              =     -67.05105631 Ry
     Harris-Foulkes estimate   =     -67.06847213 Ry
     estimated scf accuracy    <       0.02804139 Ry

     iteration #  2     ecut=    32.00 Ry     beta=0.70
     Davidson diagonalization with overlap
     ethr =  2.55E-04,  avg # of iterations =  2.0

     total cpu time spent up to now is       14.2 secs

     total energy              =     -67.05835427 Ry
     Harris-Foulkes estimate   =     -67.06218368 Ry
     estimated scf accuracy    <       0.00683609 Ry

     iteration #  3     ecut=    32.00 Ry     beta=0.70
     Davidson diagonalization with overlap
     ethr =  6.21E-05,  avg # of iterations =  1.9

     total cpu time spent up to now is       18.0 secs

     total energy              =     -67.05975190 Ry
     Harris-Foulkes estimate   =     -67.05975290 Ry
     estimated scf accuracy    <       0.00004537 Ry

     iteration #  4     ecut=    32.00 Ry     beta=0.70
     Davidson diagonalization with overlap
     ethr =  4.12E-07,  avg # of iterations =  4.1

     total cpu time spent up to now is       23.8 secs

     total energy              =     -67.05977574 Ry
     Harris-Foulkes estimate   =     -67.05977571 Ry
     estimated scf accuracy    <       0.00000034 Ry

     iteration #  5     ecut=    32.00 Ry     beta=0.70
     Davidson diagonalization with overlap
     ethr =  3.08E-09,  avg # of iterations =  1.3

     total cpu time spent up to now is       27.3 secs

     total energy              =     -67.05977581 Ry
     Harris-Foulkes estimate   =     -67.05977577 Ry
     estimated scf accuracy    <       0.00000015 Ry

     iteration #  6     ecut=    32.00 Ry     beta=0.70
     Davidson diagonalization with overlap
     ethr =  1.38E-09,  avg # of iterations =  1.0

     total cpu time spent up to now is       30.8 secs

     total energy              =     -67.05977581 Ry
     Harris-Foulkes estimate   =     -67.05977581 Ry
     estimated scf accuracy    <          3.2E-10 Ry

     iteration #  7     ecut=    32.00 Ry     beta=0.70
     Davidson diagonalization with overlap
     ethr =  2.92E-12,  avg # of iterations =  2.4

     total cpu time spent up to now is       35.3 secs

     total energy              =     -67.05977581 Ry
     Harris-Foulkes estimate   =     -67.05977581 Ry
     estimated scf accuracy    <          1.9E-11 Ry

     iteration #  8     ecut=    32.00 Ry     beta=0.70
     Davidson diagonalization with overlap
     ethr =  1.76E-13,  avg # of iterations =  2.9

     total cpu time spent up to now is       39.6 secs

     End of self-consistent calculation

          k =-0.0312 0.0312 0.0312 (   335 PWs)   bands (ev):

     6.0477  11.2186  11.2425  11.2425  12.7396  12.7396  30.4857  34.2503
    34.5454  34.5454

          k =-0.0938 0.0938-0.0312 (   335 PWs)   bands (ev):

     6.2291  11.1520  11.2983  11.3182  12.6754  12.7497  30.6959  33.2907
    34.4689  34.9192

          k =-0.1562 0.1562-0.0938 (   337 PWs)   bands (ev):

     6.6641  11.0351  11.4236  11.4420  12.6042  12.7574  30.8972  31.6825
    34.7451  35.5826

          k =-0.2188 0.2188-0.1562 (   348 PWs)   bands (ev):

     7.2897  10.9587  11.5274  11.5284  12.6259  12.8543  29.1016  31.6431
    35.1037  36.3992

          k =-0.2812 0.2812-0.2188 (   350 PWs)   bands (ev):

     7.9525  11.1017  11.5051  11.5123  12.8405  13.1085  26.7271  31.4612
    34.9939  36.6910

          k =-0.3438 0.3438-0.2812 (   348 PWs)   bands (ev):

     8.4074  11.3853  11.4072  11.7324  13.1970  13.4748  24.2483  30.9044
    34.2504  35.5505

          k =-0.4062 0.4062-0.3438 (   352 PWs)   bands (ev):

     8.5769  11.2755  11.2944  12.7993  13.5707  13.8969  21.8475  30.3585
    33.4601  34.2892

          k =-0.4688 0.4688-0.4062 (   354 PWs)   bands (ev):

     8.6065  11.1932  11.2204  13.6348  13.8543  14.6388  19.8073  30.0129
    32.9852  33.4093

          k = 0.4688-0.4688 0.5312 (   346 PWs)   bands (ev):

     8.6070  11.1669  11.2050  13.7470  13.9694  15.1335  19.0556  29.9245
    32.9933  33.0396

          k = 0.4062-0.4062 0.4688 (   351 PWs)   bands (ev):

     8.6031  11.2039  11.2508  13.3938  13.8857  14.2777  20.4135  30.1033
    33.2022  33.5267

          k = 0.3438-0.3438 0.4062 (   353 PWs)   bands (ev):

     8.5436  11.2962  11.3456  12.3971  13.5817  13.6346  22.6250  30.5289
    33.8102  34.5227

          k = 0.2812-0.2812 0.3438 (   349 PWs)   bands (ev):

     8.2902  11.3876  11.4591  11.4834  13.1252  13.2979  25.0748  31.1154
    34.6195  35.7911

          k = 0.2188-0.2188 0.2812 (   349 PWs)   bands (ev):

     7.7421  11.0106  11.5208  11.5364  12.7714  12.9859  27.5401  31.5985
    35.1425  36.7047

          k = 0.1562-0.1562 0.2188 (   345 PWs)   bands (ev):

     7.0670  10.9666  11.5054  11.5129  12.6023  12.8025  29.8358  31.6083
    35.0516  35.9824

          k = 0.0938-0.0938 0.1562 (   335 PWs)   bands (ev):

     6.4937  11.0700  11.3877  11.3973  12.6152  12.7574  30.9223  32.1878
    34.7117  35.1882

          k = 0.0312-0.0312 0.0938 (   335 PWs)   bands (ev):

     6.1390  11.1746  11.2799  11.2829  12.6887  12.7608  30.5964  33.8331
    34.4910  34.6172

          k =-0.0312 0.1562 0.0312 (   335 PWs)   bands (ev):

     6.3197  11.0827  11.3609  11.3633  12.5909  12.8026  30.8116  33.3225
    34.3518  34.5513

          k =-0.0938 0.2188-0.0312 (   340 PWs)   bands (ev):

     6.6702  10.9527  11.4826  11.4937  12.4709  12.8537  31.1384  32.1303
    34.0802  35.0478

          k =-0.1562 0.2812-0.0938 (   347 PWs)   bands (ev):

     7.2379  10.8286  11.5836  11.6204  12.4411  12.9581  29.9624  31.6790
    34.0767  35.7358

          k =-0.2188 0.3438-0.1562 (   346 PWs)   bands (ev):

     7.9103  10.8304  11.5302  11.6550  12.6659  13.1963  27.6497  31.6458
    33.8735  35.9283

          k =-0.2812 0.4062-0.2188 (   347 PWs)   bands (ev):

     8.4574  11.1591  11.3896  11.5822  13.1119  13.5666  25.1673  31.1921
    33.2710  35.4006

          k =-0.3438 0.4688-0.2812 (   352 PWs)   bands (ev):

     8.7024  11.2136  11.4642  11.9380  13.6006  14.1035  22.7045  30.6463
    32.6634  34.2581

          k =-0.4062 0.5312-0.3438 (   348 PWs)   bands (ev):

     8.7544  11.1093  11.3695  12.7111  13.8894  15.0224  20.4674  30.2427
    32.2971  33.2228

          k = 0.5312-0.4062 0.5938 (   352 PWs)   bands (ev):

     8.7566  11.0689  11.3212  13.0984  13.9504  15.9439  19.0371  30.0639
    32.1379  32.7871

          k = 0.4688-0.3438 0.5312 (   351 PWs)   bands (ev):

     8.7593  11.0988  11.3341  12.9613  13.8205  15.4235  19.8541  30.1282
    32.0369  33.2699

          k = 0.4062-0.2812 0.4688 (   352 PWs)   bands (ev):

     8.7376  11.1898  11.4059  12.2980  13.5079  14.4902  21.9355  30.4201
    32.2933  34.3367

          k = 0.3438-0.2188 0.4062 (   350 PWs)   bands (ev):

     8.5778  11.2754  11.4782  11.5469  13.0775  13.8652  24.3436  30.8758
    32.9134  35.7270

          k = 0.2812-0.1562 0.3438 (   347 PWs)   bands (ev):

     8.1234  10.9190  11.4980  11.6290  12.6736  13.3970  26.8255  31.3335
    33.7367  36.2471

          k = 0.2188-0.0938 0.2812 (   347 PWs)   bands (ev):

     7.4589  10.8349  11.5676  11.6356  12.4492  13.0537  29.1927  31.5265
    34.1501  36.1939

          k = 0.1562-0.0312 0.2188 (   339 PWs)   bands (ev):

     6.8373  10.9386  11.5024  11.5170  12.4715  12.8662  31.0808  31.4724
    34.0312  35.8939

          k = 0.0938 0.0312 0.1562 (   335 PWs)   bands (ev):

     6.4076  11.0752  11.3670  11.3898  12.5946  12.7857  30.8853  32.6943
    34.3365  35.1031

          k =-0.0312 0.2812 0.0312 (   343 PWs)   bands (ev):

     6.9299  10.7892  11.6367  11.6399  12.2971  12.9424  31.4907  32.3550
    33.6106  33.9397

          k =-0.0938 0.3438-0.0312 (   344 PWs)   bands (ev):

     7.4144  10.6190  11.7271  11.8273  12.2455  13.0525  30.9654  31.7945
    33.1917  34.1564

          k =-0.1562 0.4062-0.0938 (   347 PWs)   bands (ev):

     8.0477  10.5109  11.5682  11.9273  12.5768  13.2697  28.7087  31.6932
    32.8911  34.3939

          k =-0.2188 0.4688-0.1562 (   343 PWs)   bands (ev):

     8.6489  10.6123  11.3321  11.8957  13.1532  13.6349  26.2011  31.3183
    32.1779  34.1205

          k =-0.2812 0.5312-0.2188 (   349 PWs)   bands (ev):

     8.9725  11.0280  11.1771  11.7959  13.6897  14.2940  23.6769  30.8594
    31.4774  33.4220

          k =-0.3438 0.5938-0.2812 (   350 PWs)   bands (ev):

     9.0544  10.9474  11.6546  11.8018  13.9389  15.4138  21.3070  30.3448
    31.1398  32.6505

          k = 0.5938-0.3438 0.6562 (   355 PWs)   bands (ev):

     9.0681  10.8770  11.5981  12.2762  13.9603  16.7539  19.3585  29.8557
    31.1242  32.2734

          k = 0.5312-0.2812 0.5938 (   356 PWs)   bands (ev):

     9.0856  10.8914  11.5738  12.3713  13.7817  16.7455  19.4599  29.5093
    31.1964  32.6868

          k = 0.4688-0.2188 0.5312 (   353 PWs)   bands (ev):

     9.1031  10.9817  11.6049  11.9879  13.4421  15.5967  21.4396  29.3996
    31.4541  33.7720

          k = 0.4062-0.1562 0.4688 (   352 PWs)   bands (ev):

     9.0354  11.0677  11.3556  11.7233  12.9967  14.7136  23.7654  29.5436
    32.0319  35.2494

          k = 0.3438-0.0938 0.4062 (   347 PWs)   bands (ev):

     8.6889  10.7482  11.3742  11.8463  12.5445  14.0395  26.1817  29.8809
    32.9642  35.8253

          k = 0.2812-0.0312 0.3438 (   347 PWs)   bands (ev):

     8.0508  10.6714  11.5218  11.8907  12.2627  13.4900  28.4186  30.3897
    34.1483  34.7824

          k = 0.2188 0.0312 0.2812 (   345 PWs)   bands (ev):

     7.3996  10.7935  11.5790  11.6823  12.3494  13.0825  29.8815  31.1820
    33.9264  35.9163

          k = 0.1562 0.0938 0.2188 (   342 PWs)   bands (ev):

     6.9146  10.9523  11.5013  11.5122  12.5230  12.8372  30.5358  31.5587
    34.5066  35.9014

          k =-0.0312 0.4062 0.0312 (   347 PWs)   bands (ev):

     7.7927  10.4064  11.8820  12.0582  12.1664  13.1422  31.3529  32.1402
    32.3834  32.9461

          k =-0.0938 0.4688-0.0312 (   347 PWs)   bands (ev):

     8.3168  10.2304  11.6948  12.2909  12.5255  13.3138  29.8117  30.9837
    32.5056  33.3920

          k =-0.1562 0.5312-0.0938 (   344 PWs)   bands (ev):

     8.8684  10.1661  11.4522  12.3287  13.1783  13.6597  27.2977  30.3976
    31.5048  33.4532

          k =-0.2188 0.5938-0.1562 (   346 PWs)   bands (ev):

     9.2288  10.3492  11.2647  12.2492  13.7446  14.4081  24.7210  30.0116
    30.4112  33.1614

          k =-0.2812 0.6562-0.2188 (   350 PWs)   bands (ev):

     9.3452  10.6200  11.2999  12.1329  13.9810  15.6712  22.2822  29.3608
    29.9675  32.7557

          k = 0.6562-0.2812 0.7188 (   357 PWs)   bands (ev):

     9.3987  10.6584  11.6137  12.0254  13.9884  17.2411  20.1059  28.4630
    30.2637  32.4247

          k = 0.5938-0.2188 0.6562 (   357 PWs)   bands (ev):

     9.4677  10.6657  11.8015  11.9482  13.7880  18.0878  19.2518  27.7515
    30.8903  32.3874

          k = 0.5312-0.1562 0.5938 (   353 PWs)   bands (ev):

     9.5508  10.7397  11.6041  11.9464  13.4299  16.7194  21.2291  27.3395
    31.5181  32.9952

          k = 0.4688-0.0938 0.5312 (   349 PWs)   bands (ev):

     9.5840  10.8349  11.1529  12.0009  12.9786  15.6523  23.4095  27.3166
    32.0043  34.3143

          k = 0.4062-0.0312 0.4688 (   349 PWs)   bands (ev):

     9.3436  10.6082  11.1724  12.1002  12.5152  14.8066  25.5084  27.8021
    32.5955  35.9205

          k = 0.3438 0.0312 0.4062 (   347 PWs)   bands (ev):

     8.7280  10.6018  11.3697  12.0555  12.2914  14.0758  26.9262  29.1768
    33.2944  35.3764

          k = 0.2812 0.0938 0.3438 (   348 PWs)   bands (ev):

     8.0751  10.7551  11.5143  11.7595  12.4443  13.4573  27.7036  30.9475
    33.7339  35.5202

          k = 0.2188 0.1562 0.2812 (   349 PWs)   bands (ev):

     7.5749  10.9121  11.5465  11.5783  12.6080  13.0071  28.3713  31.6603
    34.6296  36.6492

          k =-0.0312 0.5312 0.0312 (   345 PWs)   bands (ev):

     8.6529  10.0044  11.9008  12.5883  12.6861  13.3773  29.9073  30.3125
    31.5446  32.8549

          k =-0.0938 0.5938-0.0312 (   346 PWs)   bands (ev):

     8.9938   9.8527  11.9169  12.8364  13.1612  13.6383  28.2297  29.2676
    30.2625  33.2236

          k =-0.1562 0.6562-0.0938 (   343 PWs)   bands (ev):

     9.2613   9.8454  11.8004  12.7974  13.7601  14.4276  25.7073  28.6924
    29.1361  33.4452

          k =-0.2188 0.7188-0.1562 (   346 PWs)   bands (ev):

     9.3886  10.0389  11.6867  12.6771  14.0134  15.7976  23.2801  27.8470
    28.7378  33.3379

          k = 0.7188-0.2188 0.7812 (   354 PWs)   bands (ev):

     9.4825  10.2882  11.6183  12.5392  14.0308  17.4619  21.1072  26.8096
    29.0361  33.1161

          k = 0.6562-0.1562 0.7188 (   356 PWs)   bands (ev):

     9.6237  10.4795  11.5485  12.4136  13.8354  19.1210  19.4841  25.8757
    29.7812  32.9224

          k = 0.5938-0.0938 0.6562 (   355 PWs)   bands (ev):

     9.8105  10.6242  11.3369  12.3266  13.4912  17.7676  21.3920  25.1871
    30.8249  32.9006

          k = 0.5312-0.0312 0.5938 (   351 PWs)   bands (ev):

     9.9678  10.7659  10.9525  12.2713  13.0951  16.6214  23.3590  25.0294
    31.7677  33.3500

          k = 0.4688 0.0312 0.5312 (   348 PWs)   bands (ev):

     9.7892  10.6936  10.9890  12.1579  12.8003  15.6601  24.2919  26.3904
    32.1824  34.4851

          k = 0.4062 0.0938 0.4688 (   351 PWs)   bands (ev):

     9.2117  10.8211  11.2051  11.9130  12.7370  14.7759  24.7182  28.6073
    32.3527  35.6209

          k = 0.3438 0.1562 0.4062 (   347 PWs)   bands (ev):

     8.6310  11.0124  11.3875  11.6685  12.8093  13.9682  25.2654  30.5955
    32.7109  36.1069

          k = 0.2812 0.2188 0.3438 (   349 PWs)   bands (ev):

     8.1953  11.1522  11.4714  11.5287  12.9152  13.3244  25.9371  31.3176
    34.1923  36.3868

          k =-0.0312 0.6562 0.0312 (   347 PWs)   bands (ev):

     9.0475   9.6432  12.6220  13.1699  13.3887  13.6205  27.9759  28.5413
    28.7208  32.5950

          k =-0.0938 0.7188-0.0312 (   343 PWs)   bands (ev):

     9.1175   9.5372  12.7213  13.3892  13.7316  14.3753  26.1448  27.5883
    27.8945  33.1766

          k =-0.1562 0.7812-0.0938 (   346 PWs)   bands (ev):

     9.2118   9.5830  12.5317  13.2575  14.0346  15.8291  23.9724  26.5831
    27.5477  33.7168

          k = 0.7812-0.1562 0.8438 (   350 PWs)   bands (ev):

     9.3175   9.7984  12.2739  13.0881  14.0886  17.5506  21.9803  25.4616
    27.7825  33.7585

          k = 0.7188-0.0938 0.7812 (   355 PWs)   bands (ev):

     9.4732  10.1099  11.9473  12.9023  13.9275  19.3181  20.4305  24.3633
    28.4989  33.5628

          k = 0.6562-0.0312 0.7188 (   353 PWs)   bands (ev):

     9.6856  10.4421  11.5382  12.7005  13.6467  18.7644  21.6703  23.3978
    29.5788  33.2894

          k = 0.5938 0.0312 0.6562 (   355 PWs)   bands (ev):

     9.8866  10.6862  11.1658  12.4510  13.3817  17.6709  22.6173  23.8972
    30.8125  33.0534

          k = 0.5312 0.0938 0.5938 (   352 PWs)   bands (ev):

     9.7933  10.7127  11.2518  12.1333  13.2366  16.6575  22.3108  26.1377
    31.6814  33.2063

          k = 0.4688 0.1562 0.5312 (   351 PWs)   bands (ev):

     9.3344  10.9175  11.5084  11.8159  13.2101  15.6334  22.4036  28.3943
    31.7180  34.0552

          k = 0.4062 0.2188 0.4688 (   349 PWs)   bands (ev):

     8.8700  11.1557  11.5306  11.7870  13.2583  14.6182  22.8221  30.2602
    31.9074  34.8102

          k = 0.3438 0.2812 0.4062 (   352 PWs)   bands (ev):

     8.5455  11.3131  11.4151  11.9099  13.3420  13.7392  23.4586  30.7457
    33.4648  35.0883

          k =-0.0312 0.7812 0.0312 (   345 PWs)   bands (ev):

     8.9987   9.3671  13.6038  13.6593  13.8862  14.5956  25.1437  26.9893
    27.0966  32.8717

          k =-0.0938 0.8438-0.0312 (   348 PWs)   bands (ev):

     8.9932   9.3199  13.4605  13.7772  14.0633  15.8797  23.6014  26.2401
    26.6011  33.4094

          k = 0.8438-0.0938 0.9062 (   354 PWs)   bands (ev):

     9.0885   9.4245  13.1231  13.5619  14.1720  17.5277  22.0931  25.1183
    26.7252  33.9996

          k = 0.7812-0.0312 0.8438 (   357 PWs)   bands (ev):

     9.2498   9.6937  12.6216  13.3219  14.0660  19.2443  20.7985  24.0297
    27.3599  34.0203

          k = 0.7188 0.0312 0.7812 (   355 PWs)   bands (ev):

     9.4618  10.0767  12.0319  13.0025  13.8782  19.7649  20.5601  23.5148
    28.3913  33.6759

          k = 0.6562 0.0938 0.7188 (   357 PWs)   bands (ev):

     9.6697  10.4496  11.5396  12.5883  13.7265  18.9058  20.5715  24.5766
    29.6455  33.1552

          k = 0.5938 0.1562 0.6562 (   357 PWs)   bands (ev):

     9.6614  10.6127  11.5636  12.1432  13.6431  17.9421  20.2330  26.4824
    30.8510  32.6490

          k = 0.5312 0.2188 0.5938 (   353 PWs)   bands (ev):

     9.3062  10.8060  11.7422  11.9941  13.6206  16.7758  20.2437  28.5051
    31.3160  32.8041

          k = 0.4688 0.2812 0.5312 (   353 PWs)   bands (ev):

     8.9089  11.0434  11.4553  12.4688  13.6512  15.5310  20.5740  30.0535
    31.4908  33.5012

          k = 0.4062 0.3438 0.4688 (   350 PWs)   bands (ev):

     8.6473  11.2043  11.3109  12.8630  13.7350  14.3410  21.1277  30.2671
    32.8796  33.8768

          k =-0.0312 0.9062 0.0312 (   345 PWs)   bands (ev):

     8.8751   9.2049  13.8585  14.0998  14.2013  16.3262  22.5689  26.0559
    26.1935  33.1473

          k = 0.9062-0.0312 0.9688 (   346 PWs)   bands (ev):

     8.9042   9.2230  13.8042  13.8970  14.2781  17.3104  21.7083  25.6342
    26.0407  33.5764

          k = 0.8438 0.0312 0.9062 (   354 PWs)   bands (ev):

     9.0573   9.3922  13.2687  13.6133  14.2018  18.1800  21.3882  24.8259
    26.5553  34.0707

          k = 0.7812 0.0938 0.8438 (   354 PWs)   bands (ev):

     9.2747   9.7284  12.4971  13.2388  14.0800  18.4691  21.3670  24.5498
    27.5017  33.9269

          k = 0.7188 0.1562 0.7812 (   354 PWs)   bands (ev):

     9.4860  10.1791  11.7986  12.7368  13.9896  18.4288  20.6738  25.5339
    28.7142  33.3614

          k = 0.6562 0.2188 0.7188 (   358 PWs)   bands (ev):

     9.5332  10.5483  11.5718  12.2178  13.9308  18.2757  19.6191  27.1875
    29.9881  32.6515

          k = 0.5938 0.2812 0.6562 (   357 PWs)   bands (ev):

     9.2628  10.7609  11.7603  12.0424  13.8992  17.6526  19.0000  28.9353
    30.9466  32.2253

          k = 0.5312 0.3438 0.5938 (   351 PWs)   bands (ev):

     8.9004  10.9827  11.4303  12.7444  13.8960  16.4838  19.0375  30.0323
    31.4801  32.6699

          k = 0.4688 0.4062 0.5312 (   351 PWs)   bands (ev):

     8.6580  11.1415  11.2500  13.4171  13.9334  15.2732  19.3317  30.0097
    32.6502  33.1018

          k =-0.0312-0.9688 0.0312 (   342 PWs)   bands (ev):

     8.8440   9.1717  13.8905  14.2009  14.2829  16.9295  21.8065  25.8601
    26.0021  33.2144

          k =-0.0938-0.9062-0.0312 (   347 PWs)   bands (ev):

     8.9359   9.2556  13.6841  13.8648  14.1999  16.7092  22.4631  25.8384
    26.2302  33.5159

          k =-0.1562-0.8438-0.0938 (   350 PWs)   bands (ev):

     9.1446   9.4886  12.8668  13.4407  14.1167  16.6740  23.0307  25.7085
    27.0589  33.8728

          k =-0.2188-0.7812-0.1562 (   347 PWs)   bands (ev):

     9.3633   9.9033  11.9891  12.8932  14.0709  16.6429  22.6108  26.6019
    28.1966  33.5480

          k =-0.2812-0.7188-0.2188 (   351 PWs)   bands (ev):

     9.4416  10.4371  11.4418  12.3326  14.0315  16.5293  21.6554  28.1074
    29.4596  32.8861

          k =-0.3438-0.6562-0.2812 (   353 PWs)   bands (ev):

     9.2337  10.7976  11.6687  11.8573  13.9940  16.2802  20.6758  29.6106
    30.6069  32.3645

          k =-0.4062-0.5938-0.3438 (   349 PWs)   bands (ev):

     8.8961  10.9974  11.4661  12.5026  13.9604  15.8485  19.8721  30.2051
    31.6668  32.6077

          k =-0.0312-0.8438 0.0312 (   347 PWs)   bands (ev):

     8.9312   9.2705  13.7891  13.9022  14.0551  15.4661  23.7555  26.4372
    26.5649  33.0254

          k =-0.0938-0.7812-0.0312 (   346 PWs)   bands (ev):

     9.0624   9.4145  13.1353  13.6180  13.9033  15.0616  24.8796  26.8313
    27.1455  33.2840

          k =-0.1562-0.7188-0.0938 (   344 PWs)   bands (ev):

     9.2652   9.7040  12.1558  13.0358  13.9196  15.0678  24.8615  27.6599
    28.1979  33.5636

          k =-0.2188-0.6562-0.1562 (   346 PWs)   bands (ev):

     9.3579  10.1938  11.4233  12.4580  13.9085  15.0435  23.9880  29.0781
    29.4222  33.1814

          k =-0.2812-0.5938-0.2188 (   348 PWs)   bands (ev):

     9.1861  10.8242  11.2105  11.9514  13.8718  14.9144  22.9623  30.4147
    30.5686  32.8720

          k =-0.3438-0.5312-0.2812 (   347 PWs)   bands (ev):

     8.8741  11.0902  11.5487  11.8760  13.8135  14.6702  21.9860  30.5647
    31.8911  33.3529

          k =-0.0312-0.7188 0.0312 (   347 PWs)   bands (ev):

     9.0519   9.4923  13.1684  13.4426  13.7439  13.8803  26.6138  27.7133
    27.7641  32.7156

          k =-0.0938-0.6562-0.0312 (   343 PWs)   bands (ev):

     9.1145   9.6846  12.2780  13.1196  13.4968  13.8988  27.2684  28.4139
    28.9581  33.1350

          k =-0.1562-0.5938-0.0938 (   345 PWs)   bands (ev):

     9.1404  10.0007  11.5481  12.5580  13.5190  13.9522  26.5208  29.5542
    30.3504  33.3923

          k =-0.2188-0.5312-0.1562 (   346 PWs)   bands (ev):

     8.9826  10.4887  11.2462  12.0598  13.4895  13.9371  25.4630  30.7615
    31.3878  33.4338

          k =-0.2812-0.4688-0.2188 (   348 PWs)   bands (ev):

     8.7227  11.1419  11.2512  11.6718  13.4123  13.8578  24.4139  31.0670
    32.3621  34.3462

          k =-0.0312-0.5938 0.0312 (   347 PWs)   bands (ev):

     8.9275   9.8155  12.1584  12.8783  13.0137  13.4991  29.0107  29.4007
    30.1433  32.5713

          k =-0.0938-0.5312-0.0312 (   346 PWs)   bands (ev):

     8.7177  10.0366  11.7254  12.5566  12.8203  13.4641  29.0750  30.1417
    31.5466  33.4584

          k =-0.1562-0.4688-0.0938 (   346 PWs)   bands (ev):

     8.4812  10.3379  11.4848  12.1169  12.8393  13.4515  28.0282  31.1787
    32.3447  33.7638

          k =-0.2188-0.4062-0.1562 (   343 PWs)   bands (ev):

     8.2777  10.7269  11.4488  11.7603  12.8531  13.4042  26.9292  31.5654
    33.0111  35.0296

          k =-0.0312-0.4688 0.0312 (   348 PWs)   bands (ev):

     8.2511  10.2037  11.8399  12.3120  12.3954  13.2571  30.7124  31.2409
    32.2374  33.0990

          k =-0.0938-0.4062-0.0312 (   348 PWs)   bands (ev):

     7.8623  10.4271  11.7387  12.0463  12.3095  13.1766  30.4353  31.6418
    32.9032  33.5529

          k =-0.1562-0.3438-0.0938 (   346 PWs)   bands (ev):

     7.6222  10.6776  11.6168  11.7619  12.4382  13.1045  29.3486  31.7910
    33.4937  35.1234

          k =-0.0312-0.3438 0.0312 (   346 PWs)   bands (ev):

     7.3395  10.6045  11.8102  11.8327  12.1519  13.0362  31.7496  32.0872
    32.9515  33.4150

          k =-0.0938-0.2812-0.0312 (   344 PWs)   bands (ev):

     7.0099  10.7972  11.6184  11.6382  12.3351  12.9438  31.3179  31.7165
    33.6765  34.7127

          k =-0.0312-0.2188 0.0312 (   339 PWs)   bands (ev):

     6.5858  10.9516  11.4813  11.4827  12.4551  12.8637  31.1182  32.8135
    34.0748  34.3320

          k =-0.0938 0.0938 0.0938 (   335 PWs)   bands (ev):

     6.3179  11.1345  11.3313  11.3313  12.7031  12.7031  30.7790  32.7739
    34.8614  34.8614

          k =-0.1562 0.1562 0.0312 (   337 PWs)   bands (ev):

     6.5814  11.0324  11.4075  11.4430  12.5615  12.7966  31.0127  32.0212
    34.2251  35.6466

          k =-0.2188 0.2188-0.0312 (   345 PWs)   bands (ev):

     7.0827  10.8879  11.5500  11.5656  12.4230  12.9429  30.5462  31.2928
    33.9677  36.6857

          k =-0.2812 0.2812-0.0938 (   347 PWs)   bands (ev):

     7.7419  10.8123  11.5542  11.6818  12.4246  13.2293  28.4385  31.2873
    34.0748  35.9062

          k =-0.3438 0.3438-0.1562 (   348 PWs)   bands (ev):

     8.3682  10.9844  11.4671  11.6247  12.6964  13.6623  26.0314  30.9852
    33.2820  36.6119

          k =-0.4062 0.4062-0.2188 (   348 PWs)   bands (ev):

     8.7159  11.2417  11.5002  11.6953  13.1089  14.2115  23.5622  30.5726
    32.4142  35.5290

          k =-0.4688 0.4688-0.2812 (   352 PWs)   bands (ev):

     8.8064  11.1365  11.3998  12.4928  13.5221  14.9522  21.2254  30.2292
    31.8923  34.0422

          k = 0.4688-0.4688 0.6562 (   351 PWs)   bands (ev):

     8.8081  11.0562  11.3546  12.9538  13.8378  15.9314  19.3606  30.0621
    31.8159  33.0003

          k = 0.4062-0.4062 0.5938 (   353 PWs)   bands (ev):

     8.8033  11.0423  11.3720  12.8623  13.9820  15.9041  19.3310  30.1170
    32.2192  32.4601

          k = 0.3438-0.3438 0.5312 (   349 PWs)   bands (ev):

     8.7931  11.1034  11.4454  12.3139  13.9256  14.7601  21.1816  30.4042
    32.4111  33.0458

          k = 0.2812-0.2812 0.4688 (   351 PWs)   bands (ev):

     8.6988  11.2314  11.5308  11.5535  13.7002  13.7808  23.5320  30.8994
    32.7439  34.1265

          k = 0.2188-0.2188 0.4062 (   347 PWs)   bands (ev):

     8.3566  10.9276  11.4121  11.6574  13.0711  13.3903  26.0322  31.4913
    33.2469  35.1428

          k = 0.1562-0.1562 0.3438 (   346 PWs)   bands (ev):

     7.7404  10.7436  11.5759  11.6972  12.5837  13.1075  28.4991  31.8622
    33.6719  35.5931

          k = 0.0938-0.0938 0.2812 (   344 PWs)   bands (ev):

     7.0867  10.8106  11.6053  11.6256  12.3853  12.9380  30.7120  31.7506
    33.9093  35.0877

          k =-0.0938 0.2188 0.0938 (   342 PWs)   bands (ev):

     6.7524  10.9576  11.4873  11.4956  12.4993  12.8366  31.0079  31.7404
    34.4111  35.2880

          k =-0.1562 0.2812 0.0312 (   343 PWs)   bands (ev):

     7.1679  10.8041  11.5953  11.6464  12.3677  12.9774  30.6572  31.4226
    33.7759  35.5352

          k =-0.2188 0.3438-0.0312 (   347 PWs)   bands (ev):

     7.7765  10.6647  11.5696  11.8456  12.3188  13.2658  29.2288  30.9128
    33.9285  34.8705

          k =-0.2812 0.4062-0.0938 (   345 PWs)   bands (ev):

     8.4413  10.6708  11.4148  11.8694  12.5680  13.7219  26.9807  30.4957
    33.1465  35.2439

          k =-0.3438 0.4688-0.1562 (   350 PWs)   bands (ev):

     8.8964  11.0125  11.2392  11.7676  13.0226  14.3205  24.5244  30.1404
    32.1181  35.1989

          k =-0.4062 0.5312-0.2188 (   352 PWs)   bands (ev):

     9.0374  11.0323  11.5813  11.8041  13.4768  15.1241  22.1230  29.9088
    31.3832  34.0410

          k = 0.5312-0.4062 0.7188 (   353 PWs)   bands (ev):

     9.0441  10.9246  11.5593  12.3184  13.7831  16.2432  19.9828  29.8754
    30.9462  33.0494

          k = 0.4688-0.3438 0.6562 (   355 PWs)   bands (ev):

     9.0348  10.8915  11.5501  12.4468  13.9080  16.9232  19.0193  30.0213
    30.7663  32.6617

          k = 0.4062-0.2812 0.5938 (   352 PWs)   bands (ev):

     9.0338  10.9423  11.5909  12.1022  13.8544  15.7983  20.6012  30.2082
    30.8934  33.0132

          k = 0.3438-0.2188 0.5312 (   348 PWs)   bands (ev):

     8.9944  11.0720  11.3987  11.7330  13.5747  14.6949  22.8683  30.4192
    31.3962  33.8661

          k = 0.2812-0.1562 0.4688 (   346 PWs)   bands (ev):

     8.7661  10.8149  11.2627  11.8253  13.0938  13.9557  25.3369  30.7355
    32.2006  34.6894

          k = 0.2188-0.0938 0.4062 (   346 PWs)   bands (ev):

     8.2232  10.5862  11.4778  11.8957  12.6029  13.4529  27.8252  31.0970
    33.1682  34.7494

          k = 0.1562-0.0312 0.3438 (   345 PWs)   bands (ev):

     7.5617  10.6426  11.6375  11.8287  12.3195  13.1176  30.0849  31.3814
    33.5561  34.7312

          k =-0.0938 0.3438 0.0938 (   342 PWs)   bands (ev):

     7.4845  10.6402  11.6865  11.7858  12.3424  13.0582  30.1932  32.0090
    33.2091  34.6304

          k =-0.1562 0.4062 0.0312 (   345 PWs)   bands (ev):

     7.9985  10.4654  11.5998  12.0414  12.3985  13.2818  29.4874  31.0526
    33.3927  33.9346

          k =-0.2188 0.4688-0.0312 (   344 PWs)   bands (ev):

     8.6258  10.3539  11.3786  12.2657  12.5739  13.7321  27.9023  29.8344
    32.6386  34.4408

          k =-0.2812 0.5312-0.0938 (   344 PWs)   bands (ev):

     9.1575  10.4660  11.1341  12.1999  13.0644  14.3816  25.5445  29.2903
    31.5478  34.6488

          k =-0.3438 0.5938-0.1562 (   349 PWs)   bands (ev):

     9.3637  10.8290  11.0301  12.0868  13.5356  15.2831  23.1226  29.0366
    30.6107  34.0382

          k = 0.5938-0.3438 0.7812 (   354 PWs)   bands (ev):

     9.3929  10.7284  11.5286  11.9899  13.8057  16.5324  20.8623  29.0481
    29.8282  33.4050

          k = 0.5312-0.2812 0.7188 (   355 PWs)   bands (ev):

     9.4004  10.6651  11.8493  11.9148  13.8561  17.9566  19.0507  28.9612
    29.5914  33.1419

          k = 0.4688-0.2188 0.6562 (   352 PWs)   bands (ev):

     9.4210  10.7010  11.7076  11.9450  13.7388  17.0076  20.2624  28.5716
    30.1156  33.3922

          k = 0.4062-0.1562 0.5938 (   351 PWs)   bands (ev):

     9.4328  10.8319  11.2160  12.0203  13.4449  15.7366  22.4276  28.4405
    30.8170  34.1462

          k = 0.3438-0.0938 0.5312 (   350 PWs)   bands (ev):

     9.3144  10.6616  11.0356  12.1296  12.9889  14.7898  24.7623  28.6305
    31.6342  35.1067

          k = 0.2812-0.0312 0.4688 (   344 PWs)   bands (ev):

     8.8485  10.4396  11.2731  12.2425  12.5057  14.0593  27.0289  29.1813
    32.6156  35.0580

          k = 0.2188 0.0312 0.4062 (   345 PWs)   bands (ev):

     8.1952  10.5145  11.4927  12.0432  12.3935  13.4825  28.5762  30.4517
    33.5880  34.3114

          k =-0.0938 0.4688 0.0938 (   348 PWs)   bands (ev):

     8.3730  10.2665  11.6106  12.1862  12.7115  13.3380  28.9563  31.4512
    32.2452  33.4644

          k =-0.1562 0.5312 0.0312 (   347 PWs)   bands (ev):

     8.8428  10.0999  11.5031  12.5363  12.8673  13.6909  28.1219  29.6943
    31.5532  34.0502

          k =-0.2188 0.5938-0.0312 (   347 PWs)   bands (ev):

     9.3033  10.0359  11.3233  12.7696  13.0986  14.3876  26.4469  28.3660
    30.4381  34.7658

          k =-0.2812 0.6562-0.0938 (   344 PWs)   bands (ev):

     9.5499  10.2173  11.1712  12.6392  13.5856  15.3867  24.1365  27.8853
    29.4310  34.4375

          k = 0.6562-0.2812 0.8438 (   355 PWs)   bands (ev):

     9.6238  10.4451  11.1981  12.4818  13.8532  16.7325  21.8865  27.6350
    28.7100  34.0593

          k = 0.5938-0.2188 0.7812 (   356 PWs)   bands (ev):

     9.7049  10.4719  11.4027  12.3255  13.8771  18.3828  19.8706  27.0969
    28.7650  33.8421

          k = 0.5312-0.1562 0.7188 (   356 PWs)   bands (ev):

     9.8183  10.4756  11.4063  12.2557  13.7153  18.1588  20.2766  26.4850
    29.3864  33.9359

          k = 0.4688-0.0938 0.6562 (   355 PWs)   bands (ev):

     9.9262  10.5691  11.0345  12.3294  13.4041  16.7923  22.3220  26.1619
    30.1923  34.4450

          k = 0.4062-0.0312 0.5938 (   351 PWs)   bands (ev):

     9.9094  10.5402  10.7759  12.4347  12.9825  15.7144  24.3072  26.4053
    30.9970  35.3740

          k = 0.3438 0.0312 0.5312 (   348 PWs)   bands (ev):

     9.4459  10.4425  11.0260  12.3645  12.7127  14.8127  25.5621  27.8004
    31.7509  35.8076

          k = 0.2812 0.0938 0.4688 (   344 PWs)   bands (ev):

     8.8149  10.5716  11.2701  12.0165  12.7893  14.0243  26.2620  29.9347
    32.4160  34.9468

          k =-0.0938 0.5938 0.0938 (   344 PWs)   bands (ev):

     9.0446   9.9017  11.7748  12.6625  13.4855  13.6377  27.4171  29.6220
    30.2850  33.1438

          k =-0.1562 0.6562 0.0312 (   343 PWs)   bands (ev):

     9.2448   9.7672  11.8819  13.0861  13.4436  14.3655  26.4595  28.0826
    29.1268  33.9632

          k =-0.2188 0.7188-0.0312 (   344 PWs)   bands (ev):

     9.4281   9.7609  11.7946  13.2629  13.6090  15.4572  24.8479  26.8912
    28.1498  34.7863

          k = 0.7188-0.2188 0.9062 (   348 PWs)   bands (ev):

     9.5324   9.9516  11.6593  13.0409  13.9195  16.8771  22.8260  26.2489
    27.5552  34.7079

          k = 0.6562-0.1562 0.8438 (   352 PWs)   bands (ev):

     9.6494  10.2056  11.5218  12.7962  13.9712  18.5378  20.9703  25.4211
    27.7188  34.5456

          k = 0.5938-0.0938 0.7812 (   356 PWs)   bands (ev):

     9.8341  10.4100  11.3244  12.5993  13.8224  19.0954  20.6999  24.5492
    28.4067  34.4729

          k = 0.5312-0.0312 0.7188 (   356 PWs)   bands (ev):

    10.0716  10.5440  10.9683  12.5303  13.5453  17.8484  22.6318  23.9252
    29.3182  34.5751

          k = 0.4688 0.0312 0.6562 (   351 PWs)   bands (ev):

    10.1594  10.5649  10.7363  12.4788  13.2671  16.7391  23.3506  25.0664
    30.2143  34.8051

          k = 0.4062 0.0938 0.5938 (   350 PWs)   bands (ev):

     9.6796  10.7833  10.8503  12.2385  13.1956  15.7216  23.4285  27.3388
    30.9313  34.8054

          k = 0.3438 0.1562 0.5312 (   350 PWs)   bands (ev):

     9.1470  11.0013  11.0523  11.9107  13.2866  14.7468  23.8085  29.6139
    31.4535  34.4562

          k =-0.0938 0.7188 0.0938 (   341 PWs)   bands (ev):

     9.1680   9.5928  12.5158  13.1501  13.9143  14.6246  25.5816  27.7070
    28.0328  33.2826

          k =-0.1562 0.7812 0.0312 (   345 PWs)   bands (ev):

     9.1863   9.5093  12.6230  13.5501  13.8681  15.6221  24.4514  26.5867
    27.1657  34.0035

          k = 0.7812-0.1562 0.9688 (   349 PWs)   bands (ev):

     9.2853   9.5658  12.4448  13.5036  14.0351  17.0288  23.0351  25.6344
    26.5108  34.9649

          k = 0.7188-0.0938 0.9062 (   351 PWs)   bands (ev):

     9.4193   9.7934  12.1604  13.1985  14.1296  18.6878  21.5598  24.5256
    26.6757  35.0615

          k = 0.6562-0.0312 0.8438 (   354 PWs)   bands (ev):

     9.6052  10.1203  11.7624  12.9018  14.0194  19.9259  20.7942  23.4777
    27.3742  34.8888

          k = 0.5938 0.0312 0.7812 (   357 PWs)   bands (ev):

     9.8401  10.4236  11.3085  12.6634  13.8012  18.9718  21.7906  23.3614
    28.3407  34.6459

          k = 0.5312 0.0938 0.7188 (   356 PWs)   bands (ev):

     9.9899  10.4676  11.1656  12.4241  13.6161  17.9566  21.4275  25.1971
    29.3395  34.3302

          k = 0.4688 0.1562 0.6562 (   352 PWs)   bands (ev):

     9.6639  10.6224  11.3760  12.1277  13.5800  16.8904  21.2490  27.3708
    30.1552  33.9225

          k = 0.4062 0.2188 0.5938 (   350 PWs)   bands (ev):

     9.2141  10.8846  11.5839  11.8590  13.6744  15.7613  21.4674  29.5126
    30.7026  33.5350

          k =-0.0938 0.8438 0.0938 (   346 PWs)   bands (ev):

     9.0445   9.3766  13.2884  13.5481  14.1256  16.1921  23.3903  25.9438
    26.8906  33.5594

          k = 0.8438-0.0938 1.0312 (   354 PWs)   bands (ev):

     9.0540   9.3567  13.2255  13.7038  14.1955  17.2747  22.2833  25.5568
    26.1756  34.1931

          k = 0.7812-0.0312 0.9688 (   356 PWs)   bands (ev):

     9.1872   9.4785  12.8705  13.4807  14.2773  18.5971  21.3345  24.9760
    25.8640  35.1300

          k = 0.7188 0.0312 0.9062 (   354 PWs)   bands (ev):

     9.3888   9.7627  12.2979  13.1968  14.1843  19.5167  20.9090  24.0765
    26.5156  35.1532

          k = 0.6562 0.0938 0.8438 (   353 PWs)   bands (ev):

     9.6240  10.1471  11.6720  12.8734  14.0011  19.4107  20.7370  24.3025
    27.4865  34.7640

          k = 0.5938 0.1562 0.7812 (   356 PWs)   bands (ev):

     9.7973  10.4146  11.3561  12.4807  13.8542  19.1801  19.7596  25.8271
    28.5438  34.1786

          k = 0.5312 0.2188 0.7188 (   355 PWs)   bands (ev):

     9.6089  10.5525  11.6499  12.0655  13.8039  18.3795  19.2634  27.7553
    29.4661  33.5066

          k = 0.4688 0.2812 0.6562 (   354 PWs)   bands (ev):

     9.2095  10.7941  11.7004  12.1176  13.8534  17.0716  19.4603  29.6862
    30.1101  32.9452

          k =-0.0938-1.0312 0.0938 (   349 PWs)   bands (ev):

     8.9561   9.2799  13.6688  13.7439  14.2297  17.6387  21.5927  25.2222
    26.3622  33.7397

          k =-0.1562-0.9688 0.0312 (   351 PWs)   bands (ev):

     9.0212   9.3255  13.3949  13.6850  14.2774  17.9056  21.5369  25.3408
    25.9824  34.2480

          k =-0.2188-0.9062-0.0312 (   353 PWs)   bands (ev):

     9.2219   9.5078  12.7076  13.5086  14.1918  17.8984  22.0829  25.2020
    26.0742  35.0679

          k =-0.2812-0.8438-0.0938 (   352 PWs)   bands (ev):

     9.4726   9.8561  11.9317  13.1567  14.0363  17.7639  22.2037  25.3150
    27.0084  34.8999

          k =-0.3438-0.7812-0.1562 (   351 PWs)   bands (ev):

     9.6583  10.3035  11.3517  12.6610  13.9275  17.6105  21.3738  26.5904
    28.0978  34.2878

          k =-0.4062-0.7188-0.2188 (   357 PWs)   bands (ev):

     9.5626  10.5833  11.4621  12.1545  13.8681  17.4177  20.3205  28.2620
    29.1242  33.5508

          k =-0.0938-0.9062 0.0938 (   352 PWs)   bands (ev):

     8.9875   9.3123  13.5389  13.6769  14.1937  17.0250  22.3283  25.4610
    26.5413  33.6748

          k =-0.1562-0.8438 0.0312 (   352 PWs)   bands (ev):

     9.1137   9.4185  12.9588  13.6686  14.0487  16.4388  23.3382  25.9809
    26.5638  34.1009

          k =-0.2188-0.7812-0.0312 (   347 PWs)   bands (ev):

     9.3631   9.6511  12.1276  13.4265  13.8327  16.1917  23.9742  26.2198
    27.2042  34.8572

          k =-0.2812-0.7188-0.0938 (   347 PWs)   bands (ev):

     9.5720  10.0766  11.3869  12.8587  13.7748  16.0751  23.4660  27.1240
    28.3811  34.5357

          k =-0.3438-0.6562-0.1562 (   352 PWs)   bands (ev):

     9.5268  10.6249  11.0878  12.2829  13.7271  15.9479  22.4767  28.4108
    29.6219  33.9417

          k =-0.0938-0.7812 0.0938 (   343 PWs)   bands (ev):

     9.1132   9.4710  12.9355  13.3677  14.0307  15.3631  24.5191  26.6883
    27.3944  33.4184

          k =-0.1562-0.7188 0.0312 (   341 PWs)   bands (ev):

     9.2453   9.6267  12.2459  13.3452  13.6727  14.9166  25.5048  27.3083
    28.0253  33.9430

          k =-0.2188-0.6562-0.0312 (   343 PWs)   bands (ev):

     9.4305   9.8908  11.5015  13.0309  13.3665  14.8557  25.6664  27.6133
    29.2649  34.7751

          k =-0.2812-0.5938-0.0938 (   345 PWs)   bands (ev):

     9.4164  10.3508  11.0808  12.4123  13.3435  14.8254  24.8328  28.5995
    30.5316  34.4652

          k =-0.0938-0.6562 0.0938 (   341 PWs)   bands (ev):

     9.1651   9.7379  12.0969  12.9104  13.7816  14.0016  26.5404  28.7833
    28.9477  33.1831

          k =-0.1562-0.5938 0.0312 (   345 PWs)   bands (ev):

     9.1222   9.9265  11.6145  12.8092  13.1655  13.9718  27.3280  28.8872
    30.3498  34.0648

          k =-0.2188-0.5312-0.0312 (   346 PWs)   bands (ev):

     9.0185  10.1920  11.2969  12.5094  12.8225  14.0253  27.1932  29.1207
    31.5779  34.6418

          k =-0.0938-0.5312 0.0938 (   346 PWs)   bands (ev):

     8.7697  10.0796  11.6184  12.4181  13.0585  13.4880  28.2245  30.5222
    31.5231  33.1870

          k =-0.1562-0.4688 0.0312 (   349 PWs)   bands (ev):

     8.4443  10.2818  11.5246  12.2786  12.5971  13.4700  28.8403  30.4483
    32.6309  33.8669

          k =-0.0938-0.4062 0.0938 (   346 PWs)   bands (ev):

     7.9252  10.4559  11.6693  11.9738  12.4569  13.1930  29.6087  32.2547
    32.3663  34.0439

          k =-0.1562 0.1562 0.1562 (   338 PWs)   bands (ev):

     6.8274  11.0208  11.4577  11.4577  12.6865  12.6865  30.4646  31.5422
    35.4095  35.4095

          k =-0.2188 0.2188 0.0938 (   345 PWs)   bands (ev):

     7.1525  10.9146  11.5405  11.5485  12.4959  12.9106  29.8763  31.5470
    34.4000  36.6166

          k =-0.2812 0.2812 0.0312 (   347 PWs)   bands (ev):

     7.6975  10.7505  11.5639  11.7628  12.2925  13.2607  29.1343  30.8436
    34.1106  35.4079

          k =-0.3438 0.3438-0.0312 (   347 PWs)   bands (ev):

     8.3732  10.6514  11.4693  11.9655  12.2235  13.7649  27.6534  29.8100
    33.8549  35.0104

          k =-0.4062 0.4062-0.0938 (   349 PWs)   bands (ev):

     8.9506  10.8006  11.3208  11.8458  12.5937  14.3902  25.4282  29.2497
    32.7069  36.4211

          k =-0.4688 0.4688-0.1562 (   354 PWs)   bands (ev):

     9.1813  11.0160  11.4948  11.7197  13.0585  15.1439  23.0590  28.9571
    31.9418  34.7045

          k = 0.4688-0.4688 0.7812 (   355 PWs)   bands (ev):

     9.1924  10.9081  11.6488  12.0564  13.5016  16.1385  20.8144  28.9269
    31.5407  33.1959

          k = 0.4062-0.4062 0.7188 (   357 PWs)   bands (ev):

     9.1585  10.8366  11.6418  12.2578  13.8410  17.2744  19.0723  29.1928
    31.4957  32.0793

          k = 0.3438-0.3438 0.6562 (   355 PWs)   bands (ev):

     9.1344  10.8462  11.6944  12.0018  14.0061  16.5147  19.9362  29.7094
    31.4220  31.8046

          k = 0.2812-0.2812 0.5938 (   345 PWs)   bands (ev):

     9.1055  10.9267  11.4548  11.7918  13.9666  15.1065  22.0965  30.3813
    31.2244  32.4147

          k = 0.2188-0.2188 0.5312 (   348 PWs)   bands (ev):

     8.9699  10.7484  11.2014  11.9055  13.7539  13.9538  24.5458  31.1436
    31.4063  33.1503

          k = 0.1562-0.1562 0.4688 (   345 PWs)   bands (ev):

     8.5515  10.4492  11.4139  11.9880  13.0804  13.4567  27.1076  31.8306
    31.8889  33.7877

          k =-0.1562 0.2812 0.1562 (   349 PWs)   bands (ev):

     7.3753  10.8700  11.5637  11.5920  12.5456  12.9454  29.1705  31.7344
    34.4608  36.1430

          k =-0.2188 0.3438 0.0938 (   345 PWs)   bands (ev):

     7.8219  10.7210  11.5565  11.7532  12.4660  13.2385  28.5116  31.4021
    33.7435  35.3761

          k =-0.2812 0.4062 0.0312 (   347 PWs)   bands (ev):

     8.4428  10.5640  11.4203  12.0539  12.3298  13.7568  27.7212  29.8281
    33.4990  34.8237

          k =-0.3438 0.4688-0.0312 (   347 PWs)   bands (ev):

     9.0946  10.5287  11.2102  12.1828  12.4712  14.4215  26.2301  28.5011
    32.6001  35.6890

          k =-0.4062 0.5312-0.0938 (   350 PWs)   bands (ev):

     9.4588  10.8174  11.0283  12.0542  12.9516  15.2116  24.0512  27.9655
    31.7863  35.0271

          k = 0.5312-0.4062 0.8438 (   351 PWs)   bands (ev):

     9.4953  10.7810  11.4520  11.9642  13.4021  16.2093  21.7991  27.8656
    31.1161  33.7725

          k = 0.4688-0.3438 0.7812 (   355 PWs)   bands (ev):

     9.4452  10.6828  11.8242  11.9073  13.7330  17.5233  19.7256  28.1293
    30.4949  33.0042

          k = 0.4062-0.2812 0.7188 (   355 PWs)   bands (ev):

     9.3980  10.6728  11.7455  11.9564  13.9126  17.6296  19.4894  28.7002
    29.9549  32.8299

          k = 0.3438-0.2188 0.6562 (   353 PWs)   bands (ev):

     9.3651  10.7288  11.3571  12.0481  13.9006  16.0866  21.5339  29.3997
    29.7418  33.1080

          k = 0.2812-0.1562 0.5938 (   346 PWs)   bands (ev):

     9.2932  10.5972  11.1118  12.1602  13.6444  14.8396  23.8879  29.6010
    30.4822  33.6135

          k = 0.2188-0.0938 0.5312 (   345 PWs)   bands (ev):

     9.0029  10.2959  11.2798  12.2629  13.1438  13.9937  26.3940  29.9093
    31.5109  34.0278

          k =-0.1562 0.4062 0.1562 (   344 PWs)   bands (ev):

     8.1429  10.6000  11.5114  11.8295  12.7655  13.2807  27.8154  31.9456
    32.7696  34.7125

          k =-0.2188 0.4688 0.0938 (   343 PWs)   bands (ev):

     8.6327  10.4419  11.3628  12.0655  12.8454  13.6983  27.1213  30.5826
    32.4306  34.3082

          k =-0.2812 0.5312 0.0312 (   345 PWs)   bands (ev):

     9.2281  10.3087  11.1327  12.4590  12.7512  14.4084  26.3345  28.4801
    31.6377  35.2609

          k =-0.3438 0.5938-0.0312 (   350 PWs)   bands (ev):

     9.7384  10.3528  10.8755  12.5779  12.9840  15.2712  24.9224  27.0961
    30.7418  35.7637

          k = 0.5938-0.3438 0.9062 (   352 PWs)   bands (ev):

     9.8566  10.6075  10.8374  12.4319  13.4307  16.3294  22.8545  26.7366
    29.8721  34.8989

          k = 0.5312-0.2812 0.8438 (   355 PWs)   bands (ev):

     9.8372  10.4628  11.2929  12.2902  13.7193  17.6756  20.7650  26.8802
    29.0764  34.3231

          k = 0.4688-0.2188 0.7812 (   355 PWs)   bands (ev):

     9.7960  10.4296  11.4364  12.2521  13.8302  18.8526  19.3458  27.2167
    28.5770  34.1452

          k = 0.4062-0.1562 0.7188 (   355 PWs)   bands (ev):

     9.7535  10.5034  11.1693  12.3806  13.7702  17.2041  21.2960  27.2900
    28.8336  34.3514

          k = 0.3438-0.0938 0.6562 (   348 PWs)   bands (ev):

     9.7136  10.4568  10.9181  12.5430  13.4961  15.8626  23.4563  27.3251
    29.6196  34.8495

          k = 0.2812-0.0312 0.5938 (   346 PWs)   bands (ev):

     9.5192  10.1793  11.0699  12.6968  13.0255  14.8270  25.6381  27.7578
    30.5613  35.3717

          k =-0.1562 0.5312 0.1562 (   347 PWs)   bands (ev):

     8.9167  10.2971  11.3593  12.1707  13.5052  13.6273  26.3705  30.9078
    31.4051  33.1630

          k =-0.2188 0.5938 0.0938 (   345 PWs)   bands (ev):

     9.2699  10.1510  11.3035  12.4839  13.4387  14.3817  25.6475  29.1566
    30.4264  33.9025

          k =-0.2812 0.6562 0.0312 (   346 PWs)   bands (ev):

     9.6573  10.0553  11.1538  12.9317  13.3004  15.3448  24.9424  27.0448
    29.4219  35.4200

          k = 0.6562-0.2812 0.9688 (   347 PWs)   bands (ev):

     9.9045  10.1564  10.9998  12.9484  13.5368  16.4866  23.7284  25.7647
    28.4842  35.9767

          k = 0.5938-0.2188 0.9062 (   352 PWs)   bands (ev):

     9.9748  10.3309  11.0041  12.7155  13.8219  17.8577  21.8900  25.5416
    27.7080  35.5923

          k = 0.5312-0.1562 0.8438 (   360 PWs)   bands (ev):

    10.0956  10.2870  11.1166  12.5365  13.9063  19.2658  20.2926  25.4519
    27.4429  35.4288

          k = 0.4688-0.0938 0.7812 (   355 PWs)   bands (ev):

    10.2056  10.2760  10.9653  12.5787  13.8018  18.2967  21.4905  25.1437
    27.9073  35.5547

          k = 0.4062-0.0312 0.7188 (   348 PWs)   bands (ev):

    10.1604  10.3834  10.6838  12.7591  13.5260  16.9615  23.3069  25.1234
    28.7234  35.9463

          k = 0.3438 0.0312 0.6562 (   348 PWs)   bands (ev):

     9.9007  10.2594  10.8500  12.7859  13.2632  15.8229  24.3123  26.4109
    29.6249  35.8028

          k =-0.1562 0.6562 0.1562 (   345 PWs)   bands (ev):

     9.2982   9.9925  11.6375  12.5907  13.9183  14.6562  24.8374  29.0990
    29.2422  33.1258

          k =-0.2188 0.7188 0.0938 (   345 PWs)   bands (ev):

     9.4024   9.8684  11.7613  12.9534  13.8575  15.5682  24.1382  27.4704
    28.2863  34.0124

          k = 0.7188-0.2188 1.0312 (   347 PWs)   bands (ev):

     9.5812   9.8382  11.6639  13.2490  13.8089  16.7440  23.5280  25.7376
    27.2847  35.6401

          k = 0.6562-0.1562 0.9688 (   350 PWs)   bands (ev):

     9.7261   9.9961  11.4946  13.0538  14.0185  18.1352  22.5528  24.6427
    26.5282  36.4876

          k = 0.5938-0.0938 0.9062 (   357 PWs)   bands (ev):

     9.8512  10.2620  11.2819  12.7597  14.1102  19.5876  21.3035  23.9891
    26.4100  36.3438

          k = 0.5312-0.0312 0.8438 (   358 PWs)   bands (ev):

    10.0205  10.4873  10.9639  12.6240  14.0097  19.3443  22.0006  23.2448
    26.9718  36.2833

          k = 0.4688 0.0312 0.7812 (   352 PWs)   bands (ev):

    10.2050  10.4751  10.7204  12.6629  13.7834  18.1742  22.6142  23.9763
    27.8334  36.0790

          k = 0.4062 0.0938 0.7188 (   352 PWs)   bands (ev):

     9.9629  10.4392  10.8935  12.6009  13.6389  17.0451  22.3373  26.1520
    28.7509  35.1930

          k =-0.1562 0.7812 0.1562 (   348 PWs)   bands (ev):

     9.2693   9.7195  12.3119  13.0327  14.0931  16.1928  23.3032  26.5890
    27.9638  33.5087

          k = 0.7812-0.1562 1.0938 (   350 PWs)   bands (ev):

     9.2890   9.6519  12.3943  13.3204  14.0779  17.2173  22.6116  25.5127
    27.0816  34.3366

          k = 0.7188-0.0938 1.0312 (   355 PWs)   bands (ev):

     9.4270   9.7072  12.1955  13.2721  14.1890  18.5146  21.9231  24.7554
    25.9782  35.9503

          k = 0.6562-0.0312 0.9688 (   355 PWs)   bands (ev):

     9.6071   9.9291  11.8431  12.9772  14.2776  19.9944  21.0724  23.9782
    25.6231  36.7511

          k = 0.5938 0.0312 0.9062 (   354 PWs)   bands (ev):

     9.8127  10.2528  11.3655  12.7415  14.1820  20.1923  21.2510  23.2966
    26.1948  36.5279

          k = 0.5312 0.0938 0.8438 (   358 PWs)   bands (ev):

    10.0570  10.3932  11.0292  12.5980  13.9715  19.4095  20.9661  24.3795
    27.1082  35.9522

          k = 0.4688 0.1562 0.7812 (   357 PWs)   bands (ev):

    10.0030  10.3274  11.2060  12.4321  13.8237  18.5299  20.3837  26.2933
    28.1015  34.8531

          k =-0.1562-1.0938 0.1562 (   354 PWs)   bands (ev):

     9.1610   9.5524  12.8705  13.3941  14.1299  17.9555  21.7611  24.7838
    27.2035  33.8599

          k =-0.2188-1.0312 0.0938 (   356 PWs)   bands (ev):

     9.2037   9.5559  12.7912  13.4262  14.1896  18.8306  21.1406  24.4495
    26.5978  34.5550

          k =-0.2812-0.9688 0.0312 (   355 PWs)   bands (ev):

     9.3896   9.6807  12.3456  13.2355  14.2774  19.3198  21.1525  24.5234
    25.7332  36.0325

          k =-0.3438-0.9062-0.0312 (   354 PWs)   bands (ev):

     9.6487   9.9514  11.7113  13.0185  14.1869  19.0697  21.8619  24.2188
    25.9197  36.6667

          k =-0.4062-0.8438-0.0938 (   357 PWs)   bands (ev):

     9.9170  10.2828  11.1470  12.7632  13.9830  18.7327  21.5336  24.8215
    26.8987  36.0071

          k =-0.1562-0.9688 0.1562 (   359 PWs)   bands (ev):

     9.1327   9.5187  12.9990  13.4890  14.1201  18.6550  21.1223  24.3878
    27.0467  33.9449

          k =-0.2188-0.9062 0.0938 (   352 PWs)   bands (ev):

     9.2344   9.5879  12.6436  13.4039  14.1482  18.1063  21.8160  24.8126
    26.7592  34.4761

          k =-0.2812-0.8438 0.0312 (   350 PWs)   bands (ev):

     9.4958   9.7600  11.9515  13.2911  14.0254  17.6039  22.7586  25.1831
    26.4922  35.8062

          k =-0.3438-0.7812-0.0312 (   347 PWs)   bands (ev):

     9.8233  10.0642  11.2414  13.0383  13.7943  17.2631  23.1550  25.1711
    27.4157  36.2330

          k =-0.1562-0.8438 0.1562 (   348 PWs)   bands (ev):

     9.2112   9.6198  12.6308  13.2327  14.1267  17.0714  22.5350  25.5454
    27.5123  33.7055

          k =-0.2188-0.7812 0.0938 (   348 PWs)   bands (ev):

     9.3534   9.7469  12.0864  13.1635  13.9844  16.3505  23.3837  26.4569
    27.5737  34.1688

          k =-0.2812-0.7188 0.0312 (   347 PWs)   bands (ev):

     9.6535   9.9390  11.3771  13.1267  13.5628  15.9836  24.2448  26.3656
    28.2962  35.5004

          k =-0.1562-0.7188 0.1562 (   340 PWs)   bands (ev):

     9.3114   9.8469  11.9595  12.8140  14.0232  15.3798  24.0672  27.8062
    28.5455  33.3031

          k =-0.2188-0.6562 0.0938 (   344 PWs)   bands (ev):

     9.3937  10.0069  11.4760  12.7192  13.6802  14.9047  24.8924  28.3623
    29.2861  33.9098

          k =-0.1562-0.5938 0.1562 (   347 PWs)   bands (ev):

     9.1765  10.1447  11.4228  12.3736  13.7839  14.0309  25.6095  30.0365
    30.3645  33.0313

          k =-0.2188 0.2188 0.2188 (   353 PWs)   bands (ev):

     7.4890  10.9993  11.5208  11.5208  12.7943  12.7943  28.3145  31.6414
    35.9116  35.9116

          k =-0.2812 0.2812 0.1562 (   351 PWs)   bands (ev):

     7.8283  10.9327  11.5346  11.5874  12.6194  13.1731  27.5887  31.5193
    34.3678  36.6266

          k =-0.3438 0.3438 0.0938 (   348 PWs)   bands (ev):

     8.3695  10.7657  11.4685  11.7848  12.4490  13.7297  26.9282  30.4409
    33.4323  35.7292

          k =-0.4062 0.4062 0.0312 (   350 PWs)   bands (ev):

     9.0341  10.6176  11.3019  12.0443  12.3589  14.4258  26.1895  28.4991
    33.0125  35.9201

          k =-0.4688 0.4688-0.0312 (   348 PWs)   bands (ev):

     9.5778  10.6655  11.1125  12.0754  12.6285  15.2156  24.8631  27.0942
    32.5349  35.0739

          k = 0.4688-0.4688 0.9062 (   349 PWs)   bands (ev):

     9.6928  10.7938  11.2449  12.0227  13.0784  16.1269  22.8317  26.7019
    32.1890  33.4219

          k = 0.4062-0.4062 0.8438 (   354 PWs)   bands (ev):

     9.6041  10.6889  11.6256  12.0130  13.5219  17.2906  20.7086  26.8770
    31.9568  32.0547

          k = 0.3438-0.3438 0.7812 (   360 PWs)   bands (ev):

     9.4949  10.6261  11.6962  12.0567  13.8675  18.5370  19.0152  27.4422
    30.8262  32.1340

          k = 0.2812-0.2812 0.7188 (   356 PWs)   bands (ev):

     9.4108  10.5823  11.5059  12.1467  14.0393  16.8649  20.8343  28.2759
    30.1221  32.3890

          k = 0.2188-0.2188 0.6562 (   349 PWs)   bands (ev):

     9.3411  10.4141  11.3507  12.2635  14.0012  15.3082  23.1049  29.2697
    29.8731  32.7325

          k =-0.2188 0.3438 0.2188 (   347 PWs)   bands (ev):

     8.0369  10.9831  11.4956  11.5810  12.8474  13.1881  26.7812  31.5452
    34.2163  36.2153

          k =-0.2812 0.4062 0.1562 (   346 PWs)   bands (ev):

     8.4436  10.8760  11.4030  11.7083  12.8349  13.6554  26.0767  31.0888
    32.9697  35.5298

          k =-0.3438 0.4688 0.0938 (   347 PWs)   bands (ev):

     9.0126  10.7098  11.2176  11.9628  12.7368  14.3876  25.4601  29.2721
    32.3806  35.5306

          k =-0.4062 0.5312 0.0312 (   349 PWs)   bands (ev):

     9.6406  10.5785  10.9844  12.2442  12.7300  15.2292  24.8813  27.0986
    31.9324  35.4757

          k = 0.5312-0.4062 0.9688 (   349 PWs)   bands (ev):

     9.9811  10.6828  10.8262  12.3142  13.0186  16.1603  23.7904  25.7078
    31.3395  34.4522

          k = 0.4688-0.3438 0.9062 (   352 PWs)   bands (ev):

     9.8927  10.5951  11.2166  12.2824  13.4240  17.2651  21.8414  25.6360
    30.5551  33.6711

          k = 0.4062-0.2812 0.8438 (   357 PWs)   bands (ev):

     9.7263  10.5152  11.4674  12.3061  13.7589  18.6684  19.8183  26.1449
    29.6815  33.3681

          k = 0.3438-0.2188 0.7812 (   355 PWs)   bands (ev):

     9.5873  10.4355  11.4522  12.4266  13.9533  17.9187  20.4535  26.9443
    28.9845  33.4151

          k = 0.2812-0.1562 0.7188 (   352 PWs)   bands (ev):

     9.4954  10.2559  11.4069  12.5774  13.9441  16.2595  22.5478  27.8163
    28.7253  33.6472

          k =-0.2188 0.4688 0.2188 (   348 PWs)   bands (ev):

     8.6778  10.8535  11.2908  11.7660  13.4460  13.5821  25.2874  31.4075
    32.2984  34.0594

          k =-0.2812 0.5312 0.1562 (   346 PWs)   bands (ev):

     9.0609  10.7309  11.1378  11.9777  13.3879  14.3341  24.6054  30.2301
    31.4093  33.9914

          k =-0.3438 0.5938 0.0938 (   350 PWs)   bands (ev):

     9.5602  10.5910  10.9026  12.3305  13.2548  15.2727  24.0918  27.9770
    30.6934  34.8660

          k = 0.5938-0.3438 1.0312 (   351 PWs)   bands (ev):

    10.1133  10.4945  10.6167  12.6206  13.2531  16.2863  23.7842  25.7412
    29.8886  35.5598

          k = 0.5312-0.2812 0.9688 (   353 PWs)   bands (ev):

    10.3137  10.3952  10.7142  12.6022  13.5281  17.4113  22.9617  24.4859
    29.0105  35.3713

          k = 0.4688-0.2188 0.9062 (   360 PWs)   bands (ev):

    10.0614  10.3788  11.1030  12.5323  13.8017  18.7077  21.0988  24.7994
    28.1575  35.1021

          k = 0.4062-0.1562 0.8438 (   357 PWs)   bands (ev):

     9.8658  10.3318  11.2434  12.6415  13.9283  18.9655  20.5705  25.4359
    27.5557  35.0652

          k = 0.3438-0.0938 0.7812 (   353 PWs)   bands (ev):

     9.7428  10.1707  11.2793  12.8848  13.8619  17.3838  22.3281  25.9320
    27.5879  35.2352

          k =-0.2188 0.5938 0.2188 (   347 PWs)   bands (ev):

     9.1987  10.5944  11.2173  12.0729  13.8963  14.5786  23.8139  30.4064
    30.5926  32.7277

          k =-0.2812 0.6562 0.1562 (   347 PWs)   bands (ev):

     9.4372  10.4256  11.2128  12.3644  13.8285  15.4878  23.1965  28.8494
    29.4858  33.5376

          k = 0.6562-0.2812 1.0938 (   350 PWs)   bands (ev):

     9.7648  10.3007  11.0660  12.7386  13.6964  16.5698  22.8655  26.6630
    28.5327  34.9972

          k = 0.5938-0.2188 1.0312 (   352 PWs)   bands (ev):

    10.0608  10.3109  10.8786  12.8271  13.7860  17.7397  22.8631  24.5621
    27.6001  36.4557

          k = 0.5312-0.1562 0.9688 (   355 PWs)   bands (ev):

    10.0698  10.5457  10.7846  12.6665  14.0107  19.0016  22.3105  23.5211
    26.7745  36.8802

          k = 0.4688-0.0938 0.9062 (   360 PWs)   bands (ev):

    10.0083  10.4799  10.9485  12.6284  14.1070  19.7788  21.3079  23.8222
    26.3358  36.8380

          k = 0.4062-0.0312 0.8438 (   354 PWs)   bands (ev):

     9.9409  10.2668  11.0891  12.8281  14.0137  18.6029  22.4260  24.0567
    26.6230  36.9712

          k =-0.2188 0.7188 0.2188 (   347 PWs)   bands (ev):

     9.4017  10.2406  11.5687  12.4704  14.0629  16.1301  22.4374  27.9932
    29.2595  32.9141

          k = 0.7188-0.2188 1.1562 (   349 PWs)   bands (ev):

     9.4943  10.1123  11.6459  12.7806  14.0054  17.1260  21.9601  26.6118
    28.2060  33.8459

          k = 0.6562-0.1562 1.0938 (   353 PWs)   bands (ev):

     9.6877  10.0801  11.5051  12.9595  14.0039  18.2775  21.8435  25.0845
    26.9238  35.4922

          k = 0.5938-0.0938 1.0312 (   357 PWs)   bands (ev):

     9.8508  10.2372  11.2678  12.7884  14.1851  19.5140  21.9347  23.6241
    25.9107  37.2928

          k = 0.5312-0.0312 0.9688 (   360 PWs)   bands (ev):

     9.9260  10.5594  10.9460  12.6118  14.2779  20.4729  21.8996  22.7015
    25.5094  38.0717

          k = 0.4688 0.0312 0.9062 (   361 PWs)   bands (ev):

     9.9748  10.5596  10.8815  12.6383  14.1837  19.8288  22.0665  23.0788
    25.9548  37.6717

          k =-0.2188-1.1562 0.2188 (   352 PWs)   bands (ev):

     9.3822   9.9824  12.0661  12.8902  14.0544  17.9714  21.3079  25.4717
    28.3819  33.3938

          k =-0.2812-1.0938 0.1562 (   353 PWs)   bands (ev):

     9.4301   9.9355  12.0815  13.0654  14.0347  18.9891  20.9945  24.3922
    27.5816  34.2442

          k =-0.3438-1.0312 0.0938 (   354 PWs)   bands (ev):

     9.6010   9.9992  11.8175  12.9534  14.1823  20.0936  20.8314  23.6904
    26.3626  35.8219

          k =-0.4062-0.9688 0.0312 (   355 PWs)   bands (ev):

     9.8038  10.2219  11.3742  12.7500  14.2778  20.3969  21.3143  23.3556
    25.5474  37.4010

          k =-0.2188-1.0312 0.2188 (   357 PWs)   bands (ev):

     9.3346   9.8739  12.3605  13.1772  13.9563  19.7348  20.4211  23.7274
    28.0004  33.6881

          k =-0.2812-0.9688 0.1562 (   354 PWs)   bands (ev):

     9.4086   9.9018  12.1958  13.1185  14.0354  19.8327  20.5274  23.7306
    27.4571  34.3464

          k =-0.3438-0.9062 0.0938 (   353 PWs)   bands (ev):

     9.6332  10.0251  11.6998  12.9695  14.1174  19.2061  21.3783  24.2450
    26.5381  35.7039

          k =-0.2188-0.9062 0.2188 (   354 PWs)   bands (ev):

     9.3532   9.9096  12.2561  13.0670  14.0027  18.9107  20.8592  24.4096
    28.1279  33.5833

          k =-0.2812-0.8438 0.1562 (   351 PWs)   bands (ev):

     9.4643  10.0049  11.8845  12.9505  14.0293  18.0534  21.4463  25.4254
    27.8307  34.0634

          k =-0.2188-0.7812 0.2188 (   348 PWs)   bands (ev):

     9.4060  10.0936  11.8232  12.6840  14.0793  17.0271  21.8326  26.7013
    28.7604  33.1552

          k =-0.2812 0.2812 0.2812 (   350 PWs)   bands (ev):

     8.1087  11.2912  11.4680  11.4680  13.0707  13.0707  25.8867  31.2881
    35.6511  35.6511

          k =-0.3438 0.3438 0.2188 (   348 PWs)   bands (ev):

     8.3782  11.2718  11.4834  11.4975  12.9492  13.5709  25.1248  31.0844
    33.6477  36.4881

          k =-0.4062 0.4062 0.1562 (   348 PWs)   bands (ev):

     8.8308  11.0831  11.3926  11.6581  12.8517  14.3188  24.4954  30.0816
    32.3865  36.0758

          k =-0.4688 0.4688 0.0938 (   351 PWs)   bands (ev):

     9.4029  10.8664  11.1997  11.9108  12.8187  15.1925  24.0354  27.9511
    32.2906  34.9442

          k = 0.4688-0.4688 1.0312 (   347 PWs)   bands (ev):

     9.8925  10.7681  10.9809  12.1659  12.9227  16.1174  23.7885  25.6933
    32.3921  33.4797

          k = 0.4062-0.4062 0.9688 (   355 PWs)   bands (ev):

     9.9258  10.7740  11.0631  12.3306  13.2163  17.1177  22.9844  24.4075
    31.9430  32.5165

          k = 0.3438-0.3438 0.9062 (   356 PWs)   bands (ev):

     9.7300  10.5738  11.4391  12.4418  13.5971  18.3171  20.9622  24.8330
    30.5449  32.6888

          k = 0.2812-0.2812 0.8438 (   359 PWs)   bands (ev):

     9.5401  10.3515  11.6748  12.5555  13.9200  18.8440  19.9618  25.6764
    29.4455  32.9167

          k =-0.2812 0.4062 0.2812 (   349 PWs)   bands (ev):

     8.4896  11.3278  11.4876  11.5482  13.3526  13.5113  24.2907  30.9867
    33.6434  35.1196

          k =-0.3438 0.4688 0.2188 (   349 PWs)   bands (ev):

     8.7861  11.2001  11.4483  11.6235  13.3142  14.2222  23.5913  30.6729
    32.1562  34.7459

          k =-0.4062 0.5312 0.1562 (   350 PWs)   bands (ev):

     9.2382  10.9787  11.2801  11.8547  13.2157  15.1761  23.0752  28.9916
    31.5546  34.5216

          k = 0.5312-0.4062 1.0938 (   350 PWs)   bands (ev):

     9.7575  10.7280  11.0875  12.1574  13.1859  16.1782  22.8383  26.7171
    31.2590  34.1742

          k = 0.4688-0.3438 1.0312 (   354 PWs)   bands (ev):

    10.0289  10.6637  10.9574  12.4122  13.3079  17.1940  22.9826  24.4287
    30.5717  33.8764

          k = 0.4062-0.2812 0.9688 (   356 PWs)   bands (ev):

     9.8586  10.5542  11.2496  12.5728  13.5825  18.2927  22.2130  23.5500
    29.5665  33.8003

          k = 0.3438-0.2188 0.9062 (   357 PWs)   bands (ev):

     9.6345  10.2960  11.6201  12.7398  13.8650  19.3982  20.3680  24.4064
    28.5634  33.8970

          k =-0.2812 0.5312 0.2812 (   347 PWs)   bands (ev):

     8.9080  11.0957  11.4836  11.6558  13.8549  14.3778  22.7989  30.7803
    31.9345  33.1230

          k =-0.3438 0.5938 0.2188 (   348 PWs)   bands (ev):

     9.1917  10.9061  11.3627  11.8770  13.7771  15.3202  22.1791  30.0607
    30.5445  33.2941

          k = 0.5938-0.3438 1.1562 (   354 PWs)   bands (ev):

     9.6096  10.6615  11.1781  12.2019  13.6349  16.4138  21.8299  27.8907
    29.8469  34.1314

          k = 0.5312-0.2812 1.0938 (   356 PWs)   bands (ev):

    10.0891  10.3977  10.9942  12.4785  13.6110  17.5035  21.8664  25.6479
    29.0291  34.9374

          k = 0.4688-0.2188 1.0312 (   357 PWs)   bands (ev):

    10.0709  10.4785  10.9701  12.6001  13.7875  18.5781  22.2937  23.5387
    28.0959  35.3865

          k = 0.4062-0.1562 0.9688 (   355 PWs)   bands (ev):

     9.8258  10.3196  11.3452  12.7168  14.0120  19.6539  21.4302  23.2873
    27.1881  35.5669

          k =-0.2812 0.6562 0.2812 (   350 PWs)   bands (ev):

     9.2776  10.7477  11.4613  11.9575  14.0290  15.9417  21.4358  29.4745
    30.6194  32.2427

          k = 0.6562-0.2812 1.2188 (   356 PWs)   bands (ev):

     9.5004  10.5658  11.3876  12.2360  13.9544  16.9639  20.9494  28.2221
    29.3189  33.1937

          k = 0.5938-0.2188 1.1562 (   356 PWs)   bands (ev):

     9.8432  10.3876  11.1925  12.5339  13.8616  18.0802  20.8522  26.4897
    28.0304  34.6928

          k = 0.5312-0.1562 1.0938 (   360 PWs)   bands (ev):

    10.0986  10.3854  10.9498  12.6235  13.9724  19.1142  21.2494  24.5675
    26.9627  36.2238

          k = 0.4688-0.0938 1.0312 (   356 PWs)   bands (ev):

     9.9615  10.5282  10.9539  12.6207  14.1826  20.0457  21.8393  22.9769
    26.0519  37.2234

          k =-0.2812-1.2188 0.2812 (   355 PWs)   bands (ev):

     9.4974  10.4475  11.5826  12.3506  13.9999  17.8540  20.3196  26.9823
    29.7319  32.6460

          k =-0.3438-1.1562 0.2188 (   355 PWs)   bands (ev):

     9.6269  10.3466  11.5378  12.6018  13.9156  18.8761  20.1193  25.6514
    28.7316  33.6744

          k =-0.4062-1.0938 0.1562 (   356 PWs)   bands (ev):

     9.8462  10.3192  11.3038  12.6977  13.9805  19.5596  20.7341  24.2919
    27.3019  35.3829

          k =-0.2812-1.0938 0.2812 (   357 PWs)   bands (ev):

     9.5529  10.2933  11.7580  12.7384  13.8211  19.3338  20.2471  24.4232
    29.2585  33.1379

          k =-0.3438-1.0312 0.2188 (   356 PWs)   bands (ev):

     9.6315  10.2742  11.6711  12.8173  13.8291  19.3736  21.1700  23.3827
    28.4797  34.0251

          k =-0.2812-0.9688 0.2812 (   353 PWs)   bands (ev):

     9.5535  10.2668  11.8074  12.8568  13.7448  19.2706  21.0827  23.4026
    29.1662  33.2623

          k =-0.3438 0.3438 0.3438 (   353 PWs)   bands (ev):

     8.4615  11.3562  11.3562  12.1236  13.4290  13.4290  23.4141  30.6890
    34.6461  34.6461

          k =-0.4062 0.4062 0.2812 (   352 PWs)   bands (ev):

     8.6278  11.2754  11.3779  12.2014  13.3525  14.0691  22.6737  30.5532
    32.9156  34.9113

          k =-0.4688 0.4688 0.2188 (   352 PWs)   bands (ev):

     8.9755  11.0864  11.5450  11.9563  13.2997  15.0656  22.1053  29.8314
    31.6970  34.3897

          k = 0.4688-0.4688 1.1562 (   350 PWs)   bands (ev):

     9.4375  10.8425  11.6266  11.8341  13.2894  16.1394  21.7896  27.8400
    31.8645  33.3195

          k = 0.4062-0.4062 1.0938 (   355 PWs)   bands (ev):

     9.8047  10.6903  11.3207  12.1994  13.3443  17.1807  21.8321  25.6226
    31.9447  32.3445

          k = 0.3438-0.3438 1.0312 (   353 PWs)   bands (ev):

     9.7704  10.5951  11.3654  12.5660  13.4945  18.1910  22.1791  23.5515
    30.4941  32.8351

          k =-0.3438 0.4688 0.3438 (   353 PWs)   bands (ev):

     8.6546  11.2113  11.3756  12.4247  13.8033  14.0595  21.8807  30.4436
    33.0615  33.9071

          k =-0.4062 0.5312 0.2812 (   351 PWs)   bands (ev):

     8.8740  11.0748  11.4806  12.2321  13.7116  15.0634  21.2439  30.3223
    31.6467  33.6024

          k = 0.5312-0.4062 1.2188 (   353 PWs)   bands (ev):

     9.2522  10.8485  11.6947  11.9349  13.6103  16.2405  20.8244  28.9814
    30.9576  33.3749

          k = 0.4688-0.3438 1.1562 (   356 PWs)   bands (ev):

     9.6775  10.6121  11.5204  12.0950  13.5828  17.3927  20.7212  26.8937
    30.5263  33.3445

          k = 0.4062-0.2812 1.0938 (   356 PWs)   bands (ev):

     9.8203  10.5206  11.3363  12.4698  13.6554  18.4215  20.9964  24.8342
    29.6042  33.6391

          k =-0.3438 0.5938 0.3438 (   350 PWs)   bands (ev):

     8.9553  10.9782  11.5528  12.1615  13.9944  15.5901  20.5310  30.2730
    31.8645  32.2134

          k = 0.5938-0.3438 1.2812 (   356 PWs)   bands (ev):

     9.2116  10.8033  11.7217  11.9647  13.9179  16.6635  20.0130  29.8149
    30.1644  32.7681

          k = 0.5312-0.2812 1.2188 (   354 PWs)   bands (ev):

     9.6053  10.5553  11.5897  12.0848  13.8090  17.8888  19.7606  28.0738
    29.1863  33.6953

          k = 0.4688-0.2188 1.1562 (   359 PWs)   bands (ev):

     9.9689  10.3519  11.2702  12.4094  13.8212  18.9511  19.9651  26.0521
    28.2974  34.6468

          k =-0.3438-1.2812 0.3438 (   355 PWs)   bands (ev):

     9.3197  10.7226  11.8455  11.8650  13.9617  17.5159  19.4108  28.6733
    31.0789  31.8734

          k =-0.4062-1.2188 0.2812 (   357 PWs)   bands (ev):

     9.5774  10.5696  11.6122  12.1223  13.8534  18.6627  19.0590  27.4459
    29.7995  33.0673

          k =-0.3438-1.1562 0.3438 (   358 PWs)   bands (ev):

     9.6379  10.5749  11.5573  12.2567  13.7376  18.5549  19.7799  26.1450
    30.6522  32.4340

          k =-0.4062 0.4062 0.4062 (   353 PWs)   bands (ev):

     8.5681  11.2517  11.2517  13.4128  13.7519  13.7519  21.0922  30.1904
    33.7095  33.7095

          k =-0.4688 0.4688 0.3438 (   351 PWs)   bands (ev):

     8.6822  11.1734  11.2904  13.0694  13.7110  14.8017  20.4501  30.1623
    32.4757  33.7039

          k = 0.4688-0.4688 1.2812 (   355 PWs)   bands (ev):

     8.9795  10.9824  11.4860  12.5055  13.6899  16.0891  19.9769  29.7731
    31.4214  33.0800

          k = 0.4062-0.4062 1.2188 (   354 PWs)   bands (ev):

     9.3775  10.7468  11.8198  11.9423  13.6965  17.3884  19.7187  28.0962
    31.7317  31.9951

          k =-0.4062 0.5312 0.4062 (   349 PWs)   bands (ev):

     8.6820  11.1328  11.2913  13.1423  13.9640  15.0688  19.8197  30.0978
    32.7836  32.9697

          k = 0.5312-0.4062 1.3438 (   351 PWs)   bands (ev):

     8.8777  11.0009  11.4233  12.7253  13.9013  16.1634  19.3569  30.1304
    31.4717  32.8357

          k = 0.4688-0.3438 1.2812 (   357 PWs)   bands (ev):

     9.2264  10.7813  11.7089  12.1484  13.8473  17.4578  19.0647  29.2719
    30.4935  32.7472

          k =-0.4062-1.3438 0.4062 (   351 PWs)   bands (ev):

     8.9640  10.9399  11.4903  12.5659  13.9395  16.7097  19.0122  29.9306
    31.5977  32.2288

          k =-0.4688 0.4688 0.4688 (   350 PWs)   bands (ev):

     8.5813  11.1917  11.1917  13.9425  13.9425  14.6811  19.3285  29.9233
    33.1833  33.1833

          k = 0.4688-0.4688 1.4062 (   350 PWs)   bands (ev):

     8.6830  11.1201  11.2598  13.3791  13.9335  15.6064  19.0482  30.0020
    32.4757  32.9812

     the Fermi energy is    15.9439 ev

!    total energy              =     -67.05977581 Ry
     Harris-Foulkes estimate   =     -67.05977581 Ry
     estimated scf accuracy    <          9.6E-14 Ry

     The total energy is the sum of the following terms:

     one-electron contribution =       7.64562486 Ry
     hartree contribution      =       7.72506423 Ry
     xc contribution           =     -10.47607956 Ry
     ewald contribution        =     -71.95438534 Ry
     smearing contrib. (-TS)   =       0.00000000 Ry

     convergence has been achieved in   8 iterations

     Forces acting on atoms (Ry/au):

     atom    1 type  1   force =     0.00000000    0.00000000    0.00000000

     Total force =     0.000000     Total SCF correction =     0.000000


     entering subroutine stress ...

          total   stress  (Ry/bohr**3)                   (kbar)     P=       71.47
   0.00048581   0.00000000   0.00000000         71.47      0.00      0.00
   0.00000000   0.00048581  -0.00000000          0.00     71.47     -0.00
   0.00000000  -0.00000000   0.00048581          0.00     -0.00     71.47


     Writing output data file Au.save
 
     init_run     :      1.68s CPU      1.71s WALL (       1 calls)
     electrons    :     37.12s CPU     37.90s WALL (       1 calls)
     forces       :      0.25s CPU      0.25s WALL (       1 calls)
     stress       :      1.11s CPU      1.12s WALL (       1 calls)

     Called by init_run:
     wfcinit      :      1.16s CPU      1.19s WALL (       1 calls)
     potinit      :      0.02s CPU      0.02s WALL (       1 calls)

     Called by electrons:
     c_bands      :     31.21s CPU     31.83s WALL (       9 calls)
     sum_band     :      5.58s CPU      5.68s WALL (       9 calls)
     v_of_rho     :      0.13s CPU      0.13s WALL (       9 calls)
     newd         :      0.22s CPU      0.21s WALL (       9 calls)
     mix_rho      :      0.00s CPU      0.01s WALL (       9 calls)

     Called by c_bands:
     init_us_2    :      1.20s CPU      1.12s WALL (    8568 calls)
     cegterg      :     27.88s CPU     28.31s WALL (    3672 calls)

     Called by *egterg:
     h_psi        :     21.73s CPU     22.49s WALL (   12539 calls)
     s_psi        :      0.71s CPU      0.78s WALL (   12539 calls)
     g_psi        :      0.28s CPU      0.27s WALL (    8459 calls)
     cdiaghg      :      2.64s CPU      2.73s WALL (   11723 calls)

     Called by h_psi:
     add_vuspsi   :      0.76s CPU      0.80s WALL (   12539 calls)

     General routines
     calbec       :      1.17s CPU      1.11s WALL (   17027 calls)
     fft          :      0.10s CPU      0.11s WALL (     152 calls)
     ffts         :      0.00s CPU      0.00s WALL (      18 calls)
     fftw         :     20.52s CPU     21.05s WALL (  224568 calls)
     interpolate  :      0.00s CPU      0.02s WALL (      18 calls)
     davcio       :      0.07s CPU      0.33s WALL (   12240 calls)
 
     Parallel routines
     fft_scatter  :      1.74s CPU      1.78s WALL (  224738 calls)
     EXX routines
 
     PWSCF        :    40.89s CPU        41.76s WALL

 
   This run was terminated on:  13:22:50   5Jul2013            

=------------------------------------------------------------------------------=
   JOB DONE.
=------------------------------------------------------------------------------=
