
     Program PWSCF v.5.0        starts on 15Aug2012 at 10:55:56 

     This program is part of the open-source Quantum ESPRESSO suite
     for quantum simulation of materials; please cite
         "P. Giannozzi et al., J. Phys.:Condens. Matter 21 395502 (2009);
          URL http://www.quantum-espresso.org", 
     in publications or presentations arising from this work. More details at
     http://www.quantum-espresso.org/quote.php

     Parallel version (MPI), running on     1 processors

     Current dimensions of program PWSCF are:
     Max number of different atomic species (ntypx) = 10
     Max number of k-points (npk) =  40000
     Max angular momentum in pseudopotentials (lmaxx) =  3
     Waiting for input...
     Reading input from standard input

     Atomic positions and unit cell read from directory:
     ./raw/Au.save/
 

     Subspace diagonalization in iterative solution of the eigenvalue problem:
     a serial algorithm will be used

 kpoint style unhandled: 
 none                                                                           
  
 
     G-vector sticks info
     --------------------
     sticks:   dense  smooth     PW     G-vecs:    dense   smooth      PW
     Sum         649     649    211                11017    11017    1989
 


     bravais-lattice index     =            2
     lattice parameter (alat)  =       7.7100  a.u.
     unit-cell volume          =     114.5785 (a.u.)^3
     number of atoms/cell      =            1
     number of atomic types    =            1
     number of electrons       =        11.00
     number of Kohn-Sham states=           22
     kinetic-energy cutoff     =      80.0000  Ry
     charge density cutoff     =     320.0000  Ry
     Exchange-correlation      =  SLA  PW   PBE  PBE ( 1 4 3 4 0)
     EXX-fraction              =        0.00

     celldm(1)=   7.710000  celldm(2)=   0.000000  celldm(3)=   0.000000
     celldm(4)=   0.000000  celldm(5)=   0.000000  celldm(6)=   0.000000

     crystal axes: (cart. coord. in units of alat)
               a(1) = (  -0.500000   0.000000   0.500000 )  
               a(2) = (   0.000000   0.500000   0.500000 )  
               a(3) = (  -0.500000   0.500000   0.000000 )  

     reciprocal axes: (cart. coord. in units 2 pi/alat)
               b(1) = ( -1.000000 -1.000000  1.000000 )  
               b(2) = (  1.000000  1.000000  1.000000 )  
               b(3) = ( -1.000000  1.000000 -1.000000 )  


     PseudoPot. # 1 for Au read from file:
     ./pseudo/Au.pbe-van_ak.UPF
     MD5 check sum: 9040a7dcfae4ad769d923573f5dfd312
     Pseudo is Ultrasoft, Zval = 11.0
     Generated by new atomic code, or converted to UPF format
     Using radial grid of  895 points,  6 beta functions with: 
                l(1) =   0
                l(2) =   0
                l(3) =   1
                l(4) =   1
                l(5) =   2
                l(6) =   2
     Q(r) pseudized with  8 coefficients,  rinner =    1.600   1.800   1.600
                                                       1.600   1.800

     atomic species   valence    mass     pseudopotential
        Au            11.00   196.96600     Au( 1.00)

     No symmetry found



   Cartesian axes

     site n.     atom                  positions (alat units)
         1           Au  tau(   1) = (   0.0000000   0.0000000   0.0000000  )

     number of k points=    15  gaussian smearing, width (Ry)=  0.0000
                       cart. coord. in units 2pi/alat
        k(    1) = (   0.0000000   0.0000000   0.0000000), wk =   0.1333333
        k(    2) = (   0.5000000   0.0000000   0.0000000), wk =   0.1333333
        k(    3) = (   1.0000000   0.0000000   0.0000000), wk =   0.1333333
        k(    4) = (   1.0000000   0.2500000   0.0000000), wk =   0.1333333
        k(    5) = (   1.0000000   0.5000000   0.0000000), wk =   0.1333333
        k(    6) = (   0.7500000   0.5000000   0.2500000), wk =   0.1333333
        k(    7) = (   0.5000000   0.5000000   0.5000000), wk =   0.1333333
        k(    8) = (   0.2500000   0.2500000   0.2500000), wk =   0.1333333
        k(    9) = (   0.0000000   0.0000000   0.0000000), wk =   0.1333333
        k(   10) = (   0.5000000   0.5000000   0.0000000), wk =   0.1333333
        k(   11) = (   1.0000000   1.0000000   0.0000000), wk =   0.1333333
        k(   12) = (   0.8750000   0.8750000   0.0000000), wk =   0.1333333
        k(   13) = (   0.7500000   0.7500000   0.0000000), wk =   0.1333333
        k(   14) = (   0.6250000   0.6250000   0.2500000), wk =   0.1333333
        k(   15) = (   0.5000000   0.5000000   0.5000000), wk =   0.1333333

     Dense  grid:    11017 G-vectors     FFT dimensions: (  32,  32,  32)

     Largest allocated arrays     est. size (Mb)     dimensions
        Kohn-Sham Wavefunctions         0.47 Mb     (   1411,   22)
        NL pseudopotentials             0.39 Mb     (   1411,   18)
        Each V/rho on FFT grid          0.50 Mb     (  32768)
        Each G-vector array             0.08 Mb     (  11017)
        G-vector shells                 0.00 Mb     (    162)
     Largest temporary arrays     est. size (Mb)     dimensions
        Auxiliary wavefunctions         1.89 Mb     (   1411,   88)
        Each subspace H/S matrix        0.12 Mb     (  88,  88)
        Each <psi_i|beta_j> matrix      0.01 Mb     (     18,   22)

     The potential is recalculated from file :
     ./raw/Au.save/charge-density.dat

     Starting wfc are    9 randomized atomic wfcs

     total cpu time spent up to now is        1.1 secs

     per-process dynamical memory:    16.0 Mb

     Band Structure Calculation
     Davidson diagonalization with overlap

     ethr =  9.09E-15,  avg # of iterations = 18.8

     total cpu time spent up to now is        9.0 secs

     End of band structure calculation

          k = 0.0000 0.0000 0.0000     band energies (ev):

     6.0132  11.2314  11.2314  11.2314  12.7465  12.7465  30.4428  34.5038
    34.5038  34.5038  38.9450  39.3627  43.8284  43.8284  43.8284  45.7073
    45.7073  45.7073  52.8656  52.8656  57.5865  63.9629

          k = 0.5000 0.0000 0.0000     band energies (ev):

     8.4473  10.0968  11.9064  12.4704  12.4704  13.3031  30.7500  30.7500
    31.8894  33.1183  33.2605  39.0155  41.8292  41.8292  46.2891  47.3651
    49.5767  53.6810  53.6810  54.5318  65.6059  65.6059

          k = 1.0000 0.0000 0.0000     band energies (ev):

     8.8253   9.1555  13.9140  14.3022  14.3022  16.9087  21.7233  25.9313
    25.9313  33.1273  35.6935  39.0167  43.7168  48.9148  50.5222  50.5222
    52.8325  52.8325  53.2781  57.1166  57.1166  59.7913

          k = 1.0000 0.2500 0.0000     band energies (ev):

     9.2807   9.5600  12.6372  13.3615  14.3032  19.0652  21.1278  24.8809
    25.5872  35.8399  36.3691  39.0188  42.0745  47.2999  48.5020  50.6342
    50.7523  54.8617  55.4347  56.7814  58.2624  62.1632

          k = 1.0000 0.5000 0.0000     band energies (ev):

     9.9321  10.7540  10.7540  12.5883  14.3042  20.6521  22.2358  22.2358
    25.3716  38.6335  38.6335  38.9966  40.2905  43.6949  48.5803  48.5803
    49.9794  56.3960  58.9613  58.9613  59.2808  61.4097

          k = 0.7500 0.5000 0.2500     band energies (ev):

     9.6048  10.5417  11.6597  12.0586  13.8298  18.5688  19.0065  28.1355
    29.0636  33.6381  38.9966  39.8044  42.8785  44.4693  45.9412  47.4977
    52.1302  53.4657  55.5927  59.4038  59.5497  63.3165

          k = 0.5000 0.5000 0.5000     band energies (ev):

     8.5819  11.1848  11.1848  13.9689  13.9689  14.9249  19.0243  29.8890
    33.1145  33.1145  38.9903  40.7436  40.7436  42.1321  48.2619  48.2619
    49.3858  56.5680  57.1066  57.1066  58.4455  58.4455

          k = 0.2500 0.2500 0.2500     band energies (ev):

     7.8208  11.0892  11.5079  11.5079  12.9160  12.9160  27.1171  31.5242
    35.9217  35.9217  37.7176  39.0066  39.0155  39.0155  46.9534  46.9534
    47.4700  50.9196  54.9810  54.9810  64.1396  64.1396

          k = 0.0000 0.0000 0.0000     band energies (ev):

     6.0132  11.2314  11.2314  11.2314  12.7465  12.7465  30.4428  34.5038
    34.5038  34.5038  38.9450  39.3627  43.8284  43.8284  43.8284  45.7073
    45.7073  45.7073  52.8656  52.8656  57.5865  63.9629

          k = 0.5000 0.5000 0.0000     band energies (ev):

     9.8039  10.6858  11.0162  12.1384  12.7476  15.6553  24.4669  26.2052
    32.4563  34.2830  37.5796  38.9993  41.6480  44.5887  45.9480  48.0615
    48.4404  53.9577  58.0932  58.2288  58.7070  60.4859

          k = 1.0000 1.0000 0.0000     band energies (ev):

     8.8253   9.1555  13.9140  14.3022  14.3022  16.9087  21.7233  25.9313
    25.9313  33.1273  35.6935  39.0167  43.7168  48.9148  50.5222  50.5222
    52.8325  52.8325  53.2781  57.1166  57.1166  59.7913

          k = 0.8750 0.8750 0.0000     band energies (ev):

     9.0365   9.3787  13.3539  13.6388  14.1844  18.2289  21.2824  24.7641
    26.6455  33.9280  36.4446  39.0184  43.1637  46.6673  50.1392  50.8429
    52.7831  53.9405  54.2462  56.3418  56.5101  61.1152

          k = 0.7500 0.7500 0.0000     band energies (ev):

     9.4417  10.0685  12.0830  13.0327  13.8476  19.7722  20.6047  23.3811
    28.5461  33.4983  38.9775  39.8694  42.2294  43.3294  49.2429  51.1624
    51.5445  54.1862  54.6564  57.7327  59.1873  61.6010

          k = 0.6250 0.6250 0.2500     band energies (ev):

     9.3470  10.7259  11.8366  11.9441  13.8524  17.9390  18.9969  28.3499
    31.4810  31.7698  38.9975  41.0948  41.3076  44.1411  46.5308  49.4453
    49.5022  54.0101  55.1882  58.7157  61.5018  62.2903

          k = 0.5000 0.5000 0.5000     band energies (ev):

     8.5819  11.1848  11.1848  13.9689  13.9689  14.9249  19.0243  29.8890
    33.1145  33.1145  38.9903  40.7436  40.7436  42.1321  48.2619  48.2619
    49.3858  56.5680  57.1066  57.1066  58.4455  58.4455

     the Fermi energy is    16.9087 ev

     Writing output data file Au.save
 
     init_run     :      0.65s CPU      0.65s WALL (       1 calls)
     electrons    :      7.87s CPU      7.93s WALL (       1 calls)

     Called by init_run:
     wfcinit      :      0.01s CPU      0.00s WALL (       1 calls)
     potinit      :      0.03s CPU      0.03s WALL (       1 calls)

     Called by electrons:
     c_bands      :      7.87s CPU      7.93s WALL (       1 calls)
     v_of_rho     :      0.01s CPU      0.02s WALL (       1 calls)
     newd         :      0.03s CPU      0.03s WALL (       1 calls)

     Called by c_bands:
     init_us_2    :      0.01s CPU      0.01s WALL (      15 calls)
     cegterg      :      7.41s CPU      7.44s WALL (      19 calls)

     Called by *egterg:
     h_psi        :      4.90s CPU      4.99s WALL (     316 calls)
     s_psi        :      0.17s CPU      0.14s WALL (     316 calls)
     g_psi        :      0.07s CPU      0.09s WALL (     282 calls)
     cdiaghg      :      0.61s CPU      0.70s WALL (     297 calls)

     Called by h_psi:
     add_vuspsi   :      0.14s CPU      0.14s WALL (     316 calls)

     General routines
     calbec       :      0.13s CPU      0.14s WALL (     316 calls)
     fft          :      0.00s CPU      0.01s WALL (      11 calls)
     fftw         :      4.01s CPU      4.21s WALL (    9514 calls)
     davcio       :      0.01s CPU      0.04s WALL (      30 calls)
 
     Parallel routines
     fft_scatter  :      0.37s CPU      0.39s WALL (    9525 calls)
     EXX routines
 
     PWSCF        :     9.04s CPU         9.15s WALL

 
   This run was terminated on:  10:56: 5  15Aug2012            

=------------------------------------------------------------------------------=
   JOB DONE.
=------------------------------------------------------------------------------=
