
     Program PWSCF v.5.0.2 starts on 22Nov2013 at 13:12:17 

     This program is part of the open-source Quantum ESPRESSO suite
     for quantum simulation of materials; please cite
         "P. Giannozzi et al., J. Phys.:Condens. Matter 21 395502 (2009);
          URL http://www.quantum-espresso.org", 
     in publications or presentations arising from this work. More details at
     http://www.quantum-espresso.org/quote

     Parallel version (MPI), running on     1 processors
     Waiting for input...
     Reading input from standard input

     Current dimensions of program PWSCF are:
     Max number of different atomic species (ntypx) = 10
     Max number of k-points (npk) =  40000
     Max angular momentum in pseudopotentials (lmaxx) =  3

     Subspace diagonalization in iterative solution of the eigenvalue problem:
     a serial algorithm will be used

 kpoint style unhandled: 
 none                                                                           
  
 
     G-vector sticks info
     --------------------
     sticks:   dense  smooth     PW     G-vecs:    dense   smooth      PW
     Sum        1789     889    265                49805    17573    2891
 

     Title: 
     zincblende                                                                 


     bravais-lattice index     =            2
     lattice parameter (alat)  =      10.0652  a.u.
     unit-cell volume          =     254.9255 (a.u.)^3
     number of atoms/cell      =            2
     number of atomic types    =            2
     number of electrons       =        18.00
     number of Kohn-Sham states=            9
     kinetic-energy cutoff     =      64.0000  Ry
     charge density cutoff     =     512.0000  Ry
     convergence threshold     =      1.0E-12
     mixing beta               =       0.7000
     number of iterations used =            8  plain     mixing
     Exchange-correlation      =  SLA  PW   PBE  PBE ( 1  4  3  4 0)

     celldm(1)=  10.065247  celldm(2)=   0.000000  celldm(3)=   0.000000
     celldm(4)=   0.000000  celldm(5)=   0.000000  celldm(6)=   0.000000

     crystal axes: (cart. coord. in units of alat)
               a(1) = (  -0.500000   0.000000   0.500000 )  
               a(2) = (   0.000000   0.500000   0.500000 )  
               a(3) = (  -0.500000   0.500000   0.000000 )  

     reciprocal axes: (cart. coord. in units 2 pi/alat)
               b(1) = ( -1.000000 -1.000000  1.000000 )  
               b(2) = (  1.000000  1.000000  1.000000 )  
               b(3) = ( -1.000000  1.000000 -1.000000 )  


     PseudoPot. # 1 for Zn read from file:
     ../pseudo/Zn.pbe-van.UPF
     MD5 check sum: 8a117cd81793830d6ad9bd6443d05479
     Pseudo is Ultrasoft, Zval = 12.0
     Generated by new atomic code, or converted to UPF format
     Using radial grid of  869 points,  6 beta functions with: 
                l(1) =   0
                l(2) =   0
                l(3) =   1
                l(4) =   1
                l(5) =   2
                l(6) =   2
     Q(r) pseudized with  8 coefficients,  rinner =    0.800   0.800   0.800
                                                       0.800   0.800

     PseudoPot. # 2 for S  read from file:
     ../pseudo/S.pbe-van_bm.UPF
     MD5 check sum: 5981569f150ce26f656387b858196b6a
     Pseudo is Ultrasoft, Zval =  6.0
     Generated by new atomic code, or converted to UPF format
     Using radial grid of  811 points,  6 beta functions with: 
                l(1) =   0
                l(2) =   0
                l(3) =   1
                l(4) =   1
                l(5) =   2
                l(6) =   2
     Q(r) pseudized with  8 coefficients,  rinner =    1.100   1.100   1.100
                                                       1.100   1.100

     atomic species   valence    mass     pseudopotential
        Zn            12.00    65.41000     Zn( 1.00)
        S              6.00    32.07000     S ( 1.00)

      6 Sym. Ops. (no inversion) found



   Cartesian axes

     site n.     atom                  positions (alat units)
         1           Zn  tau(   1) = (   0.1250000  -0.1250000  -0.1250000  )
         2           S   tau(   2) = (  -0.1200000   0.1200000   0.1200000  )

     number of k points=    65
                       cart. coord. in units 2pi/alat
        k(    1) = (   0.0000000   0.0000000   0.0000000), wk =   0.0039062
        k(    2) = (  -0.1250000   0.1250000  -0.1250000), wk =   0.0234375
        k(    3) = (  -0.2500000   0.2500000  -0.2500000), wk =   0.0234375
        k(    4) = (  -0.3750000   0.3750000  -0.3750000), wk =   0.0234375
        k(    5) = (   0.5000000  -0.5000000   0.5000000), wk =   0.0117188
        k(    6) = (   0.0000000   0.2500000   0.0000000), wk =   0.0234375
        k(    7) = (  -0.1250000   0.3750000  -0.1250000), wk =   0.0468750
        k(    8) = (  -0.2500000   0.5000000  -0.2500000), wk =   0.0468750
        k(    9) = (   0.6250000  -0.3750000   0.6250000), wk =   0.0468750
        k(   10) = (   0.5000000  -0.2500000   0.5000000), wk =   0.0468750
        k(   11) = (   0.3750000  -0.1250000   0.3750000), wk =   0.0468750
        k(   12) = (   0.2500000   0.0000000   0.2500000), wk =   0.0234375
        k(   13) = (   0.0000000   0.5000000   0.0000000), wk =   0.0234375
        k(   14) = (  -0.1250000   0.6250000  -0.1250000), wk =   0.0468750
        k(   15) = (   0.7500000  -0.2500000   0.7500000), wk =   0.0468750
        k(   16) = (   0.6250000  -0.1250000   0.6250000), wk =   0.0468750
        k(   17) = (   0.5000000   0.0000000   0.5000000), wk =   0.0234375
        k(   18) = (   0.0000000   0.7500000   0.0000000), wk =   0.0234375
        k(   19) = (   0.8750000  -0.1250000   0.8750000), wk =   0.0468750
        k(   20) = (   0.7500000   0.0000000   0.7500000), wk =   0.0234375
        k(   21) = (   0.0000000  -1.0000000   0.0000000), wk =   0.0117188
        k(   22) = (  -0.2500000   0.5000000   0.0000000), wk =   0.0468750
        k(   23) = (   0.6250000  -0.3750000   0.8750000), wk =   0.0468750
        k(   24) = (   0.5000000  -0.2500000   0.7500000), wk =   0.0468750
        k(   25) = (   0.7500000  -0.2500000   1.0000000), wk =   0.0468750
        k(   26) = (   0.6250000  -0.1250000   0.8750000), wk =   0.0468750
        k(   27) = (   0.5000000   0.0000000   0.7500000), wk =   0.0468750
        k(   28) = (  -0.2500000  -1.0000000   0.0000000), wk =   0.0468750
        k(   29) = (  -0.5000000  -1.0000000   0.0000000), wk =   0.0234375
        k(   30) = (  -0.1250000   0.1250000   0.1250000), wk =   0.0078125
        k(   31) = (  -0.2500000   0.2500000   0.2500000), wk =   0.0078125
        k(   32) = (  -0.3750000   0.3750000   0.3750000), wk =   0.0078125
        k(   33) = (   0.5000000  -0.5000000  -0.5000000), wk =   0.0039062
        k(   34) = (  -0.3750000  -0.1250000  -0.1250000), wk =   0.0234375
        k(   35) = (  -0.1250000   0.3750000   0.1250000), wk =   0.0234375
        k(   36) = (  -0.5000000  -0.2500000  -0.2500000), wk =   0.0234375
        k(   37) = (  -0.2500000   0.5000000   0.2500000), wk =   0.0234375
        k(   38) = (   0.3750000   0.6250000   0.6250000), wk =   0.0234375
        k(   39) = (   0.6250000  -0.3750000  -0.6250000), wk =   0.0234375
        k(   40) = (   0.2500000   0.5000000   0.5000000), wk =   0.0234375
        k(   41) = (   0.5000000  -0.2500000  -0.5000000), wk =   0.0234375
        k(   42) = (   0.1250000   0.3750000   0.3750000), wk =   0.0234375
        k(   43) = (   0.3750000  -0.1250000  -0.3750000), wk =   0.0234375
        k(   44) = (   0.0000000   0.2500000   0.2500000), wk =   0.0234375
        k(   45) = (  -0.6250000  -0.1250000  -0.1250000), wk =   0.0234375
        k(   46) = (  -0.1250000   0.6250000   0.1250000), wk =   0.0234375
        k(   47) = (   0.2500000   0.7500000   0.7500000), wk =   0.0234375
        k(   48) = (   0.7500000  -0.2500000  -0.7500000), wk =   0.0234375
        k(   49) = (   0.1250000   0.6250000   0.6250000), wk =   0.0234375
        k(   50) = (   0.6250000  -0.1250000  -0.6250000), wk =   0.0234375
        k(   51) = (   0.0000000   0.5000000   0.5000000), wk =   0.0234375
        k(   52) = (   0.1250000   0.8750000   0.8750000), wk =   0.0234375
        k(   53) = (   0.8750000  -0.1250000  -0.8750000), wk =   0.0234375
        k(   54) = (   0.0000000   0.7500000   0.7500000), wk =   0.0234375
        k(   55) = (   0.5000000   0.2500000   0.0000000), wk =   0.0468750
        k(   56) = (  -0.3750000  -0.6250000   0.8750000), wk =   0.0468750
        k(   57) = (   0.3750000   0.6250000   0.8750000), wk =   0.0468750
        k(   58) = (   0.8750000  -0.3750000  -0.6250000), wk =   0.0468750
        k(   59) = (  -0.2500000  -0.5000000   0.7500000), wk =   0.0234375
        k(   60) = (   0.7500000  -0.2500000  -0.5000000), wk =   0.0234375
        k(   61) = (  -0.2500000  -0.7500000   1.0000000), wk =   0.0468750
        k(   62) = (  -0.1250000  -0.6250000   0.8750000), wk =   0.0468750
        k(   63) = (   0.1250000   0.6250000   0.8750000), wk =   0.0468750
        k(   64) = (   0.8750000  -0.1250000  -0.6250000), wk =   0.0468750
        k(   65) = (   0.0000000   0.5000000   0.7500000), wk =   0.0468750

     Dense  grid:    49805 G-vectors     FFT dimensions: (  54,  54,  54)

     Smooth grid:    17573 G-vectors     FFT dimensions: (  40,  40,  40)

     Largest allocated arrays     est. size (Mb)     dimensions
        Kohn-Sham Wavefunctions         0.31 Mb     (    2229,    9)
        NL pseudopotentials             1.22 Mb     (    2229,   36)
        Each V/rho on FFT grid          2.40 Mb     (  157464)
        Each G-vector array             0.38 Mb     (   49805)
        G-vector shells                 0.00 Mb     (     440)
     Largest temporary arrays     est. size (Mb)     dimensions
        Auxiliary wavefunctions         1.22 Mb     (    2229,   36)
        Each subspace H/S matrix        0.02 Mb     (      36,   36)
        Each <psi_i|beta_j> matrix      0.00 Mb     (      36,    9)
        Arrays for rho mixing          19.22 Mb     (  157464,    8)

     Initial potential from superposition of free atoms

     starting charge   17.99982, renormalised to   18.00000
     Starting wfc are   10 randomized atomic wfcs

     total cpu time spent up to now is        2.5 secs

     per-process dynamical memory:    54.8 Mb

     Self-consistent Calculation

     iteration #  1     ecut=    64.00 Ry     beta=0.70
     Davidson diagonalization with overlap
     ethr =  1.00E-02,  avg # of iterations =  2.0
      157464      157464      157464

     Threshold (ethr) on eigenvalues was too large:
     Diagonalizing with lowered threshold

     Davidson diagonalization with overlap
     ethr =  5.75E-04,  avg # of iterations =  1.9
      157464      157464      157464

     total cpu time spent up to now is       10.7 secs

     total energy              =    -147.13179015 Ry
     Harris-Foulkes estimate   =    -147.20163541 Ry
     estimated scf accuracy    <       0.10035077 Ry

     iteration #  2     ecut=    64.00 Ry     beta=0.70
     Davidson diagonalization with overlap
     ethr =  5.58E-04,  avg # of iterations =  2.1
      157464      157464      157464

     total cpu time spent up to now is       15.9 secs

     total energy              =    -147.15648811 Ry
     Harris-Foulkes estimate   =    -147.19129375 Ry
     estimated scf accuracy    <       0.06286680 Ry

     iteration #  3     ecut=    64.00 Ry     beta=0.70
     Davidson diagonalization with overlap
     ethr =  3.49E-04,  avg # of iterations =  2.0
      157464      157464      157464

     total cpu time spent up to now is       21.1 secs

     total energy              =    -147.17117713 Ry
     Harris-Foulkes estimate   =    -147.17219004 Ry
     estimated scf accuracy    <       0.00213497 Ry

     iteration #  4     ecut=    64.00 Ry     beta=0.70
     Davidson diagonalization with overlap
     ethr =  1.19E-05,  avg # of iterations =  2.0
      157464      157464      157464

     total cpu time spent up to now is       26.0 secs

     total energy              =    -147.17175842 Ry
     Harris-Foulkes estimate   =    -147.17179899 Ry
     estimated scf accuracy    <       0.00019675 Ry

     iteration #  5     ecut=    64.00 Ry     beta=0.70
     Davidson diagonalization with overlap
     ethr =  1.09E-06,  avg # of iterations =  2.0
      157464      157464      157464

     total cpu time spent up to now is       30.9 secs

     total energy              =    -147.17178487 Ry
     Harris-Foulkes estimate   =    -147.17178591 Ry
     estimated scf accuracy    <       0.00000364 Ry

     iteration #  6     ecut=    64.00 Ry     beta=0.70
     Davidson diagonalization with overlap
     ethr =  2.02E-08,  avg # of iterations =  3.0
      157464      157464      157464

     total cpu time spent up to now is       36.3 secs

     total energy              =    -147.17178628 Ry
     Harris-Foulkes estimate   =    -147.17178630 Ry
     estimated scf accuracy    <       0.00000041 Ry

     iteration #  7     ecut=    64.00 Ry     beta=0.70
     Davidson diagonalization with overlap
     ethr =  2.28E-09,  avg # of iterations =  3.0
      157464      157464      157464

     total cpu time spent up to now is       41.5 secs

     total energy              =    -147.17178638 Ry
     Harris-Foulkes estimate   =    -147.17178643 Ry
     estimated scf accuracy    <       0.00000014 Ry

     iteration #  8     ecut=    64.00 Ry     beta=0.70
     Davidson diagonalization with overlap
     ethr =  7.55E-10,  avg # of iterations =  2.0
      157464      157464      157464

     total cpu time spent up to now is       46.0 secs

     total energy              =    -147.17178639 Ry
     Harris-Foulkes estimate   =    -147.17178639 Ry
     estimated scf accuracy    <          4.8E-09 Ry

     iteration #  9     ecut=    64.00 Ry     beta=0.70
     Davidson diagonalization with overlap
     ethr =  2.67E-11,  avg # of iterations =  2.9
      157464      157464      157464

     total cpu time spent up to now is       51.4 secs

     total energy              =    -147.17178639 Ry
     Harris-Foulkes estimate   =    -147.17178639 Ry
     estimated scf accuracy    <          7.8E-11 Ry

     iteration # 10     ecut=    64.00 Ry     beta=0.70
     Davidson diagonalization with overlap
     ethr =  4.32E-13,  avg # of iterations =  2.7
      157464      157464      157464

     total cpu time spent up to now is       56.8 secs

     total energy              =    -147.17178639 Ry
     Harris-Foulkes estimate   =    -147.17178639 Ry
     estimated scf accuracy    <          1.9E-11 Ry

     iteration # 11     ecut=    64.00 Ry     beta=0.70
     Davidson diagonalization with overlap
     ethr =  1.05E-13,  avg # of iterations =  1.1
      157464      157464      157464

     total cpu time spent up to now is       60.7 secs

     total energy              =    -147.17178639 Ry
     Harris-Foulkes estimate   =    -147.17178639 Ry
     estimated scf accuracy    <          2.4E-12 Ry

     iteration # 12     ecut=    64.00 Ry     beta=0.70
     Davidson diagonalization with overlap
     ethr =  1.00E-13,  avg # of iterations =  1.0
      157464      157464      157464

     total cpu time spent up to now is       64.7 secs

     End of self-consistent calculation

          k = 0.0000 0.0000 0.0000 (  2229 PWs)   bands (ev):

    -7.0953  -0.1857  -0.1203  -0.1203   0.4143   0.4143   6.3126   6.3860
     6.3860

          k =-0.1250 0.1250-0.1250 (  2187 PWs)   bands (ev):

    -6.9697  -0.1669  -0.1174  -0.1006   0.4123   0.4133   5.2379   6.1581
     6.2372

          k =-0.2500 0.2500-0.2500 (  2196 PWs)   bands (ev):

    -6.6402  -0.1212  -0.0704  -0.0591   0.4147   0.4196   3.4515   5.8031
     5.9144

          k =-0.3750 0.3750-0.3750 (  2208 PWs)   bands (ev):

    -6.2629  -0.0595  -0.0288   0.1255   0.4314   0.4413   1.8589   5.4869
     5.6279

          k = 0.5000-0.5000 0.5000 (  2186 PWs)   bands (ev):

    -6.0881  -0.0417  -0.0201   0.4424   0.4556   0.6142   0.8372   5.3638
     5.5168

          k = 0.0000 0.2500 0.0000 (  2189 PWs)   bands (ev):

    -6.9269  -0.1837  -0.1067  -0.0774   0.3955   0.4267   5.2892   5.9019
     5.9400

          k =-0.1250 0.3750-0.1250 (  2201 PWs)   bands (ev):

    -6.6637  -0.1749  -0.0607  -0.0259   0.3870   0.4381   3.9487   5.4850
     5.6326

          k =-0.2500 0.5000-0.2500 (  2185 PWs)   bands (ev):

    -6.2961  -0.0936  -0.0149   0.0723   0.4148   0.4514   2.3897   5.1399
     5.2516

          k = 0.6250-0.3750 0.6250 (  2206 PWs)   bands (ev):

    -6.0437  -0.0371   0.0014   0.3423   0.4491   0.5774   1.1740   4.8082
     5.1716

          k = 0.5000-0.2500 0.5000 (  2213 PWs)   bands (ev):

    -6.1036  -0.0356  -0.0074   0.2560   0.4241   0.4975   1.5345   4.6791
     5.3885

          k = 0.3750-0.1250 0.3750 (  2195 PWs)   bands (ev):

    -6.4250  -0.0821  -0.0380  -0.0143   0.3972   0.4540   2.9080   4.8651
     5.7733

          k = 0.2500 0.0000 0.2500 (  2201 PWs)   bands (ev):

    -6.7760  -0.1382  -0.1121  -0.0640   0.3971   0.4302   4.3600   5.4485
     6.1187

          k = 0.0000 0.5000 0.0000 (  2181 PWs)   bands (ev):

    -6.4842  -0.2192  -0.0021   0.0417   0.3681   0.4566   3.7458   5.0218
     5.0467

          k =-0.1250 0.6250-0.1250 (  2204 PWs)   bands (ev):

    -6.1821  -0.1838   0.0588   0.1180   0.4068   0.4696   2.7522   4.4894
     4.6885

          k = 0.7500-0.2500 0.7500 (  2210 PWs)   bands (ev):

    -5.9278  -0.0836   0.0840   0.2453   0.4616   0.5863   1.7176   3.8387
     4.6385

          k = 0.6250-0.1250 0.6250 (  2212 PWs)   bands (ev):

    -5.9003  -0.0393   0.0658   0.3479   0.4272   0.6496   1.5000   3.4535
     4.9057

          k = 0.5000 0.0000 0.5000 (  2209 PWs)   bands (ev):

    -6.1188  -0.0349   0.0141   0.1425   0.3982   0.4913   2.3189   3.7022
     5.3665

          k = 0.0000 0.7500 0.0000 (  2209 PWs)   bands (ev):

    -5.9753  -0.2256   0.1386   0.1904   0.4444   0.4864   2.3733   4.2697
     4.2837

          k = 0.8750-0.1250 0.8750 (  2199 PWs)   bands (ev):

    -5.7977  -0.1712   0.1730   0.2465   0.4840   0.6152   1.8140   3.7039
     4.1637

          k = 0.7500 0.0000 0.7500 (  2219 PWs)   bands (ev):

    -5.7681  -0.0866   0.1441   0.3129   0.4529   0.7929   1.5587   3.0656
     4.4133

          k = 0.0000-1.0000 0.0000 (  2200 PWs)   bands (ev):

    -5.7389  -0.2150   0.2099   0.2645   0.4988   0.6390   1.6431   3.9756
     3.9852

          k =-0.2500 0.5000 0.0000 (  2194 PWs)   bands (ev):

    -6.3727  -0.1473   0.0033   0.0482   0.3847   0.4521   3.0952   4.5196
     5.4295

          k = 0.6250-0.3750 0.8750 (  2206 PWs)   bands (ev):

    -6.0572  -0.0449   0.0403   0.1879   0.4336   0.4794   2.0126   3.9461
     5.0495

          k = 0.5000-0.2500 0.7500 (  2216 PWs)   bands (ev):

    -5.9178  -0.0221   0.0570   0.3280   0.4297   0.7089   1.2786   3.8322
     4.8305

          k = 0.7500-0.2500 1.0000 (  2203 PWs)   bands (ev):

    -5.9313  -0.1214   0.1211   0.2046   0.4635   0.5048   2.1155   3.8242
     4.3447

          k = 0.6250-0.1250 0.8750 (  2214 PWs)   bands (ev):

    -5.7898  -0.0461   0.1291   0.3116   0.4233   0.7490   1.6036   3.2787
     4.1583

          k = 0.5000 0.0000 0.7500 (  2211 PWs)   bands (ev):

    -5.8487  -0.0153   0.0685   0.3289   0.4133   0.6643   1.7441   3.1955
     4.4609

          k =-0.2500-1.0000 0.0000 (  2214 PWs)   bands (ev):

    -5.7355  -0.1190   0.1874   0.2658   0.4658   0.7462   1.6117   3.6666
     3.7303

          k =-0.5000-1.0000 0.0000 (  2208 PWs)   bands (ev):

    -5.7321  -0.0108   0.1633   0.3352   0.3721   0.8534   1.5725   3.3820
     3.4975

          k =-0.1250 0.1250 0.1250 (  2187 PWs)   bands (ev):

    -6.9671  -0.1905  -0.0940  -0.0940   0.4110   0.4110   5.1714   6.2172
     6.2172

          k =-0.2500 0.2500 0.2500 (  2196 PWs)   bands (ev):

    -6.6298  -0.1581  -0.0356  -0.0356   0.4114   0.4114   3.3725   5.8521
     5.8521

          k =-0.3750 0.3750 0.3750 (  2208 PWs)   bands (ev):

    -6.2418   0.0112   0.0112   0.0485   0.4292   0.4292   1.7668   5.5280
     5.5280

          k = 0.5000-0.5000-0.5000 (  2186 PWs)   bands (ev):

    -6.0613   0.0257   0.0257   0.4431   0.4431   0.6134   0.6617   5.4020
     5.4020

          k =-0.3750-0.1250-0.1250 (  2201 PWs)   bands (ev):

    -6.6657  -0.1653  -0.0711  -0.0323   0.3882   0.4408   3.9851   5.5390
     5.5519

          k =-0.1250 0.3750 0.1250 (  2201 PWs)   bands (ev):

    -6.6585  -0.1877  -0.0463  -0.0155   0.3830   0.4353   3.8890   5.5123
     5.6227

          k =-0.5000-0.2500-0.2500 (  2185 PWs)   bands (ev):

    -6.2986  -0.0901   0.0058   0.0314   0.4197   0.4569   2.4210   5.0869
     5.2820

          k =-0.2500 0.5000 0.2500 (  2185 PWs)   bands (ev):

    -6.2816  -0.0732   0.0258   0.0399   0.4047   0.4468   2.3091   5.1662
     5.2063

          k = 0.3750 0.6250 0.6250 (  2206 PWs)   bands (ev):

    -6.0438  -0.0412   0.0179   0.3050   0.4582   0.5864   1.1907   4.7121
     5.2543

          k = 0.6250-0.3750-0.6250 (  2206 PWs)   bands (ev):

    -6.0207   0.0162   0.0590   0.3141   0.4467   0.5327   1.0643   4.7766
     5.1621

          k = 0.2500 0.5000 0.5000 (  2213 PWs)   bands (ev):

    -6.1001  -0.0370   0.0082   0.2681   0.4300   0.4762   1.5160   4.5865
     5.4783

          k = 0.5000-0.2500-0.5000 (  2213 PWs)   bands (ev):

    -6.0813   0.0225   0.0434   0.2147   0.4184   0.4647   1.4267   4.6373
     5.3981

          k = 0.1250 0.3750 0.3750 (  2195 PWs)   bands (ev):

    -6.4195  -0.0979  -0.0237   0.0071   0.3992   0.4416   2.8685   4.7974
     5.8510

          k = 0.3750-0.1250-0.3750 (  2195 PWs)   bands (ev):

    -6.4114  -0.0955  -0.0059   0.0004   0.3924   0.4414   2.8116   4.8351
     5.8072

          k = 0.0000 0.2500 0.2500 (  2201 PWs)   bands (ev):

    -6.7711  -0.1762  -0.0689  -0.0562   0.3958   0.4244   4.2917   5.4268
     6.1730

          k =-0.6250-0.1250-0.1250 (  2204 PWs)   bands (ev):

    -6.1847  -0.1820   0.0625   0.0960   0.4143   0.4727   2.8030   4.4103
     4.7229

          k =-0.1250 0.6250 0.1250 (  2204 PWs)   bands (ev):

    -6.1760  -0.1781   0.0777   0.1148   0.3961   0.4671   2.6953   4.5067
     4.6885

          k = 0.2500 0.7500 0.7500 (  2210 PWs)   bands (ev):

    -5.9281  -0.0729   0.1158   0.1792   0.4674   0.5955   1.7631   3.7363
     4.6900

          k = 0.7500-0.2500-0.7500 (  2210 PWs)   bands (ev):

    -5.9141  -0.0492   0.1432   0.2093   0.4591   0.5561   1.6247   3.8394
     4.6409

          k = 0.1250 0.6250 0.6250 (  2212 PWs)   bands (ev):

    -5.8938  -0.0230   0.0993   0.3243   0.4307   0.6379   1.4780   3.3683
     4.9630

          k = 0.6250-0.1250-0.6250 (  2212 PWs)   bands (ev):

    -5.8837  -0.0001   0.1195   0.3525   0.4234   0.5995   1.3803   3.4356
     4.9268

          k = 0.0000 0.5000 0.5000 (  2209 PWs)   bands (ev):

    -6.1064  -0.0087   0.0520   0.1300   0.3958   0.4648   2.2309   3.6635
     5.4175

          k = 0.1250 0.8750 0.8750 (  2199 PWs)   bands (ev):

    -5.7978  -0.1657   0.1837   0.2209   0.4854   0.6196   1.8369   3.6529
     4.1847

          k = 0.8750-0.1250-0.8750 (  2199 PWs)   bands (ev):

    -5.7936  -0.1612   0.2017   0.2300   0.4825   0.6046   1.7795   3.6993
     4.1710

          k = 0.0000 0.7500 0.7500 (  2219 PWs)   bands (ev):

    -5.7612  -0.0622   0.1935   0.2677   0.4523   0.7884   1.5156   3.0217
     4.4379

          k = 0.5000 0.2500 0.0000 (  2194 PWs)   bands (ev):

    -6.3807  -0.1428  -0.0145   0.0349   0.3903   0.4613   3.1759   4.5466
     5.3667

          k =-0.3750-0.6250 0.8750 (  2206 PWs)   bands (ev):

    -6.0634  -0.0443   0.0050   0.1926   0.4285   0.5004   2.0445   4.0473
     4.9503

          k = 0.3750 0.6250 0.8750 (  2206 PWs)   bands (ev):

    -6.0635  -0.0479   0.0289   0.1591   0.4371   0.5022   2.0699   3.9758
     4.9958

          k = 0.8750-0.3750-0.6250 (  2206 PWs)   bands (ev):

    -6.0478  -0.0114   0.0558   0.1653   0.4261   0.4706   1.9462   3.9950
     5.0093

          k =-0.2500-0.5000 0.7500 (  2216 PWs)   bands (ev):

    -5.9203  -0.0151   0.0221   0.3525   0.4296   0.7108   1.2689   3.9538
     4.7297

          k = 0.7500-0.2500-0.5000 (  2216 PWs)   bands (ev):

    -5.9009   0.0194   0.0952   0.3518   0.4156   0.6723   1.1417   3.8855
     4.7894

          k =-0.2500-0.7500 1.0000 (  2203 PWs)   bands (ev):

    -5.9380  -0.1283   0.0937   0.1985   0.4667   0.5263   2.1884   3.8454
     4.2852

          k =-0.1250-0.6250 0.8750 (  2214 PWs)   bands (ev):

    -5.7927  -0.0477   0.1075   0.3113   0.4330   0.7530   1.6180   3.3438
     4.0962

          k = 0.1250 0.6250 0.8750 (  2214 PWs)   bands (ev):

    -5.7900  -0.0370   0.1362   0.2757   0.4341   0.7511   1.6323   3.2377
     4.1697

          k = 0.8750-0.1250-0.6250 (  2214 PWs)   bands (ev):

    -5.7828  -0.0265   0.1651   0.2900   0.4248   0.7386   1.5297   3.2980
     4.1565

          k = 0.0000 0.5000 0.7500 (  2211 PWs)   bands (ev):

    -5.8391   0.0011   0.1152   0.3342   0.3970   0.6419   1.6653   3.1560
     4.5126

     highest occupied level (ev):     6.3860

!    total energy              =    -147.17178639 Ry
     Harris-Foulkes estimate   =    -147.17178639 Ry
     estimated scf accuracy    <          3.7E-14 Ry

     The total energy is the sum of the following terms:

     one-electron contribution =     -92.23224287 Ry
     hartree contribution      =      61.64116416 Ry
     xc contribution           =     -23.12469105 Ry
     ewald contribution        =     -93.45601663 Ry

     convergence has been achieved in  12 iterations

     Forces acting on atoms (Ry/au):

     atom    1 type  1   force =     0.00779230   -0.00779230   -0.00779230
     atom    2 type  2   force =    -0.00779230    0.00779230    0.00779230

     Total force =     0.019087     Total SCF correction =     0.000001


     entering subroutine stress ...

   5.99927726822363       3.758637910090201E-002 -3.134839733753061E-002
  3.758637910090201E-002   5.94300097344579      -2.710518363921161E-002
 -3.134839733753061E-002 -2.710518363921161E-002   6.04721903110874     
          total   stress  (Ry/bohr**3)                   (kbar)     P=   55.14
   0.00037480  -0.00006228  -0.00006228         55.14     -9.16     -9.16
  -0.00006228   0.00037480   0.00006228         -9.16     55.14      9.16
  -0.00006228   0.00006228   0.00037480         -9.16      9.16     55.14


     Writing output data file ZnS.save
 
     init_run     :      2.42s CPU      2.44s WALL (       1 calls)
     electrons    :     62.00s CPU     62.20s WALL (       1 calls)
     forces       :      0.48s CPU      0.48s WALL (       1 calls)
     stress       :      2.14s CPU      2.16s WALL (       1 calls)

     Called by init_run:
     wfcinit      :      1.42s CPU      1.42s WALL (       1 calls)
     potinit      :      0.09s CPU      0.09s WALL (       1 calls)

     Called by electrons:
     c_bands      :     48.13s CPU     48.22s WALL (      13 calls)
     sum_band     :     10.77s CPU     10.83s WALL (      13 calls)
     v_of_rho     :      0.89s CPU      0.92s WALL (      13 calls)
     newd         :      2.29s CPU      2.32s WALL (      13 calls)
     mix_rho      :      0.09s CPU      0.09s WALL (      13 calls)

     Called by c_bands:
     init_us_2    :      1.49s CPU      1.49s WALL (    1885 calls)
     cegterg      :     42.49s CPU     42.56s WALL (     845 calls)

     Called by *egterg:
     h_psi        :     40.10s CPU     40.19s WALL (    2709 calls)
     s_psi        :      0.96s CPU      0.94s WALL (    2709 calls)
     g_psi        :      0.28s CPU      0.30s WALL (    1799 calls)
     cdiaghg      :      0.34s CPU      0.34s WALL (    2579 calls)

     Called by h_psi:
     add_vuspsi   :      0.92s CPU      0.93s WALL (    2709 calls)

     General routines
     calbec       :      1.39s CPU      1.38s WALL (    3684 calls)
     fft          :      0.54s CPU      0.54s WALL (     216 calls)
     ffts         :      0.03s CPU      0.03s WALL (      26 calls)
     fftw         :     39.84s CPU     39.89s WALL (   49613 calls)
     interpolate  :      0.10s CPU      0.11s WALL (      26 calls)
 
     Parallel routines
     fft_scatter  :      2.66s CPU      2.64s WALL (   49855 calls)
 
     PWSCF        :  1m 7.33s CPU     1m 7.61s WALL

 
   This run was terminated on:  13:13:24  22Nov2013            

=------------------------------------------------------------------------------=
   JOB DONE.
=------------------------------------------------------------------------------=
