
     Program PWSCF v.5.0.2 starts on 22Nov2013 at 13:13:24 

     This program is part of the open-source Quantum ESPRESSO suite
     for quantum simulation of materials; please cite
         "P. Giannozzi et al., J. Phys.:Condens. Matter 21 395502 (2009);
          URL http://www.quantum-espresso.org", 
     in publications or presentations arising from this work. More details at
     http://www.quantum-espresso.org/quote

     Parallel version (MPI), running on     1 processors
     Waiting for input...
     Reading input from standard input

     Current dimensions of program PWSCF are:
     Max number of different atomic species (ntypx) = 10
     Max number of k-points (npk) =  40000
     Max angular momentum in pseudopotentials (lmaxx) =  3

     Atomic positions and unit cell read from directory:
     ./ref/ZnS.save/
 

     Subspace diagonalization in iterative solution of the eigenvalue problem:
     a serial algorithm will be used

 kpoint style unhandled: 
 none                                                                           
  
 
     G-vector sticks info
     --------------------
     sticks:   dense  smooth     PW     G-vecs:    dense   smooth      PW
     Sum        1789     889    253                49805    17573    2741
 


     bravais-lattice index     =            2
     lattice parameter (alat)  =      10.0652  a.u.
     unit-cell volume          =     254.9255 (a.u.)^3
     number of atoms/cell      =            2
     number of atomic types    =            2
     number of electrons       =        18.00
     number of Kohn-Sham states=            9
     kinetic-energy cutoff     =      64.0000  Ry
     charge density cutoff     =     512.0000  Ry
     Exchange-correlation      =  SLA  PW   PBE  PBE ( 1  4  3  4 0)

     celldm(1)=  10.065247  celldm(2)=   0.000000  celldm(3)=   0.000000
     celldm(4)=   0.000000  celldm(5)=   0.000000  celldm(6)=   0.000000

     crystal axes: (cart. coord. in units of alat)
               a(1) = (  -0.500000   0.000000   0.500000 )  
               a(2) = (   0.000000   0.500000   0.500000 )  
               a(3) = (  -0.500000   0.500000   0.000000 )  

     reciprocal axes: (cart. coord. in units 2 pi/alat)
               b(1) = ( -1.000000 -1.000000  1.000000 )  
               b(2) = (  1.000000  1.000000  1.000000 )  
               b(3) = ( -1.000000  1.000000 -1.000000 )  


     PseudoPot. # 1 for Zn read from file:
     ../pseudo/Zn.pbe-van.UPF
     MD5 check sum: 8a117cd81793830d6ad9bd6443d05479
     Pseudo is Ultrasoft, Zval = 12.0
     Generated by new atomic code, or converted to UPF format
     Using radial grid of  869 points,  6 beta functions with: 
                l(1) =   0
                l(2) =   0
                l(3) =   1
                l(4) =   1
                l(5) =   2
                l(6) =   2
     Q(r) pseudized with  8 coefficients,  rinner =    0.800   0.800   0.800
                                                       0.800   0.800

     PseudoPot. # 2 for S  read from file:
     ../pseudo/S.pbe-van_bm.UPF
     MD5 check sum: 5981569f150ce26f656387b858196b6a
     Pseudo is Ultrasoft, Zval =  6.0
     Generated by new atomic code, or converted to UPF format
     Using radial grid of  811 points,  6 beta functions with: 
                l(1) =   0
                l(2) =   0
                l(3) =   1
                l(4) =   1
                l(5) =   2
                l(6) =   2
     Q(r) pseudized with  8 coefficients,  rinner =    1.100   1.100   1.100
                                                       1.100   1.100

     atomic species   valence    mass     pseudopotential
        Zn            12.00    65.41000     Zn( 1.00)
        S              6.00    32.07000     S ( 1.00)

     No symmetry found



   Cartesian axes

     site n.     atom                  positions (alat units)
         1           Zn  tau(   1) = (   0.1250000  -0.1250000  -0.1250000  )
         2           S   tau(   2) = (  -0.1200000   0.1200000   0.1200000  )

     number of k points=   199

     Number of k-points >= 100: set verbosity='high' to print them.

     Dense  grid:    49805 G-vectors     FFT dimensions: (  54,  54,  54)

     Smooth grid:    17573 G-vectors     FFT dimensions: (  40,  40,  40)

     Largest allocated arrays     est. size (Mb)     dimensions
        Kohn-Sham Wavefunctions         0.31 Mb     (    2229,    9)
        NL pseudopotentials             1.22 Mb     (    2229,   36)
        Each V/rho on FFT grid          2.40 Mb     (  157464)
        Each G-vector array             0.38 Mb     (   49805)
        G-vector shells                 0.00 Mb     (     440)
     Largest temporary arrays     est. size (Mb)     dimensions
        Auxiliary wavefunctions         1.22 Mb     (    2229,   36)
        Each subspace H/S matrix        0.02 Mb     (      36,   36)
        Each <psi_i|beta_j> matrix      0.00 Mb     (      36,    9)

     The potential is recalculated from file :
     ./ref/ZnS.save/charge-density.dat

     Starting wfc are   10 randomized atomic wfcs

     Band Structure Calculation
     Davidson diagonalization with overlap

     ethr =  5.56E-15,  avg # of iterations = 18.8

     total cpu time spent up to now is       74.7 secs

     End of band structure calculation

     Number of k-points >= 100: set verbosity='high' to print the bands.

     highest occupied level (ev):     6.3860

     Writing output data file ZnS.save
 
     init_run     :      1.02s CPU      1.03s WALL (       1 calls)
     electrons    :     73.31s CPU     73.46s WALL (       1 calls)

     Called by init_run:
     wfcinit      :      0.00s CPU      0.00s WALL (       1 calls)
     potinit      :      0.08s CPU      0.09s WALL (       1 calls)

     Called by electrons:
     c_bands      :     73.31s CPU     73.46s WALL (       1 calls)
     v_of_rho     :      0.07s CPU      0.07s WALL (       1 calls)
     newd         :      0.18s CPU      0.18s WALL (       1 calls)

     Called by c_bands:
     init_us_2    :      0.16s CPU      0.16s WALL (     199 calls)
     cegterg      :     67.82s CPU     67.97s WALL (     230 calls)

     Called by *egterg:
     h_psi        :     63.34s CPU     63.48s WALL (    4165 calls)
     s_psi        :      1.54s CPU      1.48s WALL (    4165 calls)
     g_psi        :      0.66s CPU      0.69s WALL (    3736 calls)
     cdiaghg      :      0.74s CPU      0.78s WALL (    3935 calls)

     Called by h_psi:
     add_vuspsi   :      1.41s CPU      1.47s WALL (    4165 calls)

     General routines
     calbec       :      1.56s CPU      1.53s WALL (    4165 calls)
     fft          :      0.03s CPU      0.03s WALL (      12 calls)
     ffts         :      0.00s CPU      0.00s WALL (       1 calls)
     fftw         :     53.71s CPU     53.76s WALL (   66678 calls)
     interpolate  :      0.01s CPU      0.01s WALL (       1 calls)
 
     Parallel routines
     fft_scatter  :      3.09s CPU      3.11s WALL (   66691 calls)
 
     PWSCF        :  1m15.15s CPU     1m15.44s WALL

 
   This run was terminated on:  13:14:40  22Nov2013            

=------------------------------------------------------------------------------=
   JOB DONE.
=------------------------------------------------------------------------------=
