
     Program PWSCF v.5.0        starts on 22Aug2013 at 14: 0:56 

     This program is part of the open-source Quantum ESPRESSO suite
     for quantum simulation of materials; please cite
         "P. Giannozzi et al., J. Phys.:Condens. Matter 21 395502 (2009);
          URL http://www.quantum-espresso.org", 
     in publications or presentations arising from this work. More details at
     http://www.quantum-espresso.org/quote.php

     Parallel version (MPI), running on     1 processors

     Current dimensions of program PWSCF are:
     Max number of different atomic species (ntypx) = 10
     Max number of k-points (npk) =  40000
     Max angular momentum in pseudopotentials (lmaxx) =  3
     Waiting for input...
     Reading input from standard input
               file NiUS.RRKJ3.UPF: wavefunction(s)  4S renormalized

     Subspace diagonalization in iterative solution of the eigenvalue problem:
     a serial algorithm will be used

 kpoint style unhandled: 
 none                                                                           
  
 
     G-vector sticks info
     --------------------
     sticks:   dense  smooth     PW     G-vecs:    dense   smooth      PW
     Sum         559     283    109                 8657     3119     701
 

     Title: 
     nickel                                                                     


     bravais-lattice index     =            2
     lattice parameter (alat)  =       6.4800  a.u.
     unit-cell volume          =      68.0244 (a.u.)^3
     number of atoms/cell      =            1
     number of atomic types    =            1
     number of electrons       =        10.00
     number of Kohn-Sham states=            9
     kinetic-energy cutoff     =      48.0000  Ry
     charge density cutoff     =     384.0000  Ry
     convergence threshold     =      1.0E-12
     mixing beta               =       0.7000
     number of iterations used =            8  plain     mixing
     Exchange-correlation      =  SLA  PZ   NOGX NOGC ( 1 1 0 0 0)
     EXX-fraction              =        0.00

     celldm(1)=   6.480000  celldm(2)=   0.000000  celldm(3)=   0.000000
     celldm(4)=   0.000000  celldm(5)=   0.000000  celldm(6)=   0.000000

     crystal axes: (cart. coord. in units of alat)
               a(1) = (  -0.500000   0.000000   0.500000 )  
               a(2) = (   0.000000   0.500000   0.500000 )  
               a(3) = (  -0.500000   0.500000   0.000000 )  

     reciprocal axes: (cart. coord. in units 2 pi/alat)
               b(1) = ( -1.000000 -1.000000  1.000000 )  
               b(2) = (  1.000000  1.000000  1.000000 )  
               b(3) = ( -1.000000  1.000000 -1.000000 )  


     PseudoPot. # 1 for Ni read from file:
     ./pseudo/NiUS.RRKJ3.UPF
     MD5 check sum: 486b5e49e1c71bd4722d0acb33410094
     Pseudo is Ultrasoft + core correction, Zval = 10.0
     Generated by new atomic code, or converted to UPF format
     Using radial grid of 1203 points,  6 beta functions with: 
                l(1) =   0
                l(2) =   0
                l(3) =   1
                l(4) =   1
                l(5) =   2
                l(6) =   2
     Q(r) pseudized with 0 coefficients 


     atomic species   valence    mass     pseudopotential
        Ni            10.00    58.69000     Ni( 1.00)

     Starting magnetic structure 
     atomic species   magnetization
        Ni           0.700

     48 Sym. Ops., with inversion, found



   Cartesian axes

     site n.     atom                  positions (alat units)
         1           Ni  tau(   1) = (   0.0000000   0.0000000   0.0000000  )

     number of k points=   816  Methfessel-Paxton smearing, width (Ry)=  0.0200

     Number of k-points >= 100: set verbosity='high' to print them.

     Dense  grid:     8657 G-vectors     FFT dimensions: (  30,  30,  30)

     Smooth grid:     3119 G-vectors     FFT dimensions: (  24,  24,  24)

     Largest allocated arrays     est. size (Mb)     dimensions
        Kohn-Sham Wavefunctions         0.05 Mb     (    390,    9)
        NL pseudopotentials             0.11 Mb     (    390,   18)
        Each V/rho on FFT grid          0.82 Mb     (  27000,   2)
        Each G-vector array             0.07 Mb     (   8657)
        G-vector shells                 0.00 Mb     (    139)
     Largest temporary arrays     est. size (Mb)     dimensions
        Auxiliary wavefunctions         0.21 Mb     (    390,   36)
        Each subspace H/S matrix        0.02 Mb     (  36,  36)
        Each <psi_i|beta_j> matrix      0.00 Mb     (     18,    9)
        Arrays for rho mixing           3.30 Mb     (  27000,   8)

     Check: negative/imaginary core charge=   -0.000002    0.000000

     Initial potential from superposition of free atoms

     starting charge    9.99966, renormalised to   10.00000
     Starting wfc are    6 randomized atomic wfcs

     total cpu time spent up to now is        6.3 secs

     per-process dynamical memory:    14.0 Mb

     Self-consistent Calculation

     iteration #  1     ecut=    48.00 Ry     beta=0.70
     Davidson diagonalization with overlap
     ethr =  1.00E-02,  avg # of iterations =  4.1

     total cpu time spent up to now is       28.6 secs

     total energy              =     -85.34457273 Ry
     Harris-Foulkes estimate   =     -85.36943628 Ry
     estimated scf accuracy    <       0.91900252 Ry

     total magnetization       =     1.86324 Bohr mag/cell
     absolute magnetization    =     1.87882 Bohr mag/cell

     iteration #  2     ecut=    48.00 Ry     beta=0.70
     Davidson diagonalization with overlap
     ethr =  9.19E-03,  avg # of iterations =  1.9

     total cpu time spent up to now is       44.5 secs

     total energy              =     -85.52689062 Ry
     Harris-Foulkes estimate   =     -85.84530972 Ry
     estimated scf accuracy    <       0.95606504 Ry

     total magnetization       =     0.64836 Bohr mag/cell
     absolute magnetization    =     0.76967 Bohr mag/cell

     iteration #  3     ecut=    48.00 Ry     beta=0.70
     Davidson diagonalization with overlap
     ethr =  9.19E-03,  avg # of iterations =  1.0

     total cpu time spent up to now is       59.0 secs

     total energy              =     -85.71185437 Ry
     Harris-Foulkes estimate   =     -85.68309827 Ry
     estimated scf accuracy    <       0.04426157 Ry

     total magnetization       =     0.98413 Bohr mag/cell
     absolute magnetization    =     1.09424 Bohr mag/cell

     iteration #  4     ecut=    48.00 Ry     beta=0.70
     Davidson diagonalization with overlap
     ethr =  4.43E-04,  avg # of iterations =  1.0

     total cpu time spent up to now is       73.5 secs

     total energy              =     -85.72261005 Ry
     Harris-Foulkes estimate   =     -85.72219647 Ry
     estimated scf accuracy    <       0.00085991 Ry

     total magnetization       =     0.63980 Bohr mag/cell
     absolute magnetization    =     0.75220 Bohr mag/cell

     iteration #  5     ecut=    48.00 Ry     beta=0.70
     Davidson diagonalization with overlap
     ethr =  8.60E-06,  avg # of iterations =  2.3

     total cpu time spent up to now is       89.8 secs

     total energy              =     -85.72291609 Ry
     Harris-Foulkes estimate   =     -85.72279028 Ry
     estimated scf accuracy    <       0.00020571 Ry

     total magnetization       =     0.61327 Bohr mag/cell
     absolute magnetization    =     0.70721 Bohr mag/cell

     iteration #  6     ecut=    48.00 Ry     beta=0.70
     Davidson diagonalization with overlap
     ethr =  2.06E-06,  avg # of iterations =  1.7

     total cpu time spent up to now is      105.6 secs

     total energy              =     -85.72302878 Ry
     Harris-Foulkes estimate   =     -85.72303392 Ry
     estimated scf accuracy    <       0.00001728 Ry

     total magnetization       =     0.59555 Bohr mag/cell
     absolute magnetization    =     0.66295 Bohr mag/cell

     iteration #  7     ecut=    48.00 Ry     beta=0.70
     Davidson diagonalization with overlap
     ethr =  1.73E-07,  avg # of iterations =  1.3

     total cpu time spent up to now is      120.4 secs

     total energy              =     -85.72303296 Ry
     Harris-Foulkes estimate   =     -85.72303297 Ry
     estimated scf accuracy    <       0.00000039 Ry

     total magnetization       =     0.59852 Bohr mag/cell
     absolute magnetization    =     0.66467 Bohr mag/cell

     iteration #  8     ecut=    48.00 Ry     beta=0.70
     Davidson diagonalization with overlap
     ethr =  3.86E-09,  avg # of iterations =  2.3

     total cpu time spent up to now is      137.9 secs

     total energy              =     -85.72303338 Ry
     Harris-Foulkes estimate   =     -85.72303336 Ry
     estimated scf accuracy    <       0.00000007 Ry

     total magnetization       =     0.59751 Bohr mag/cell
     absolute magnetization    =     0.66226 Bohr mag/cell

     iteration #  9     ecut=    48.00 Ry     beta=0.70
     Davidson diagonalization with overlap
     ethr =  7.05E-10,  avg # of iterations =  1.1

     total cpu time spent up to now is      152.5 secs

     total energy              =     -85.72303340 Ry
     Harris-Foulkes estimate   =     -85.72303340 Ry
     estimated scf accuracy    <          4.1E-11 Ry

     total magnetization       =     0.59789 Bohr mag/cell
     absolute magnetization    =     0.66286 Bohr mag/cell

     iteration # 10     ecut=    48.00 Ry     beta=0.70
     Davidson diagonalization with overlap
     ethr =  4.07E-13,  avg # of iterations =  2.9

     total cpu time spent up to now is      171.6 secs

     total energy              =     -85.72303340 Ry
     Harris-Foulkes estimate   =     -85.72303340 Ry
     estimated scf accuracy    <          7.8E-11 Ry

     total magnetization       =     0.59790 Bohr mag/cell
     absolute magnetization    =     0.66288 Bohr mag/cell

     iteration # 11     ecut=    48.00 Ry     beta=0.70
     Davidson diagonalization with overlap
     ethr =  4.07E-13,  avg # of iterations =  1.5

     total cpu time spent up to now is      187.6 secs

     total energy              =     -85.72303340 Ry
     Harris-Foulkes estimate   =     -85.72303340 Ry
     estimated scf accuracy    <          6.4E-12 Ry

     total magnetization       =     0.59789 Bohr mag/cell
     absolute magnetization    =     0.66285 Bohr mag/cell

     iteration # 12     ecut=    48.00 Ry     beta=0.70
     Davidson diagonalization with overlap
     ethr =  1.00E-13,  avg # of iterations =  1.0

     total cpu time spent up to now is      202.1 secs

     End of self-consistent calculation

 ------ SPIN UP ------------


          k =-0.0312 0.0312 0.0312 (   363 PWs)   bands (ev):

     5.7893  12.6575  12.6789  12.6789  13.9617  13.9617  39.7933  43.6047
    44.1936

          k =-0.0938 0.0938-0.0312 (   369 PWs)   bands (ev):

     6.0056  12.5940  12.7253  12.7379  13.9132  13.9683  39.2117  41.7787
    43.2328

          k =-0.1562 0.1562-0.0938 (   370 PWs)   bands (ev):

     6.5332  12.4674  12.8291  12.8384  13.8557  13.9688  36.7314  40.5073
    42.7293

          k =-0.2188 0.2188-0.1562 (   370 PWs)   bands (ev):

     7.3303  12.3335  12.9151  12.9230  13.8568  14.0246  33.4025  39.9376
    42.2296

          k =-0.2812 0.2812-0.2188 (   374 PWs)   bands (ev):

     8.2984  12.3005  12.9080  12.9263  13.9900  14.1860  30.1110  39.4087
    41.6372

          k =-0.3438 0.3438-0.2812 (   380 PWs)   bands (ev):

     9.2170  12.5699  12.8319  12.8503  14.2270  14.4264  27.0351  38.9054
    41.0904

          k =-0.4062 0.4062-0.3438 (   380 PWs)   bands (ev):

     9.7878  12.7384  12.7599  13.3352  14.4757  14.6968  24.3066  38.4857
    40.7570

          k =-0.4688 0.4688-0.4062 (   384 PWs)   bands (ev):

    10.0003  12.6704  12.6980  14.1824  14.6609  15.0820  22.2222  38.2220
    40.7239

          k = 0.4688-0.4688 0.5312 (   384 PWs)   bands (ev):

    10.0376  12.6490  12.6842  14.3689  14.7357  15.3404  21.5574  38.1723
    41.0113

          k = 0.4062-0.4062 0.4688 (   382 PWs)   bands (ev):

     9.9564  12.6813  12.7212  13.9358  14.6841  14.8719  22.8101  38.3600
    40.7027

          k = 0.3438-0.3438 0.4062 (   377 PWs)   bands (ev):

     9.6453  12.7592  12.7974  13.0242  14.4829  14.5242  25.1652  38.7652
    40.6650

          k = 0.2812-0.2812 0.3438 (   376 PWs)   bands (ev):

     8.9362  12.4270  12.8572  12.8844  14.1811  14.3062  28.0292  39.3211
    40.8655

          k = 0.2188-0.2188 0.2812 (   376 PWs)   bands (ev):

     7.9668  12.2878  12.9238  12.9348  13.9466  14.1055  31.1895  39.9150
    41.2686

          k = 0.1562-0.1562 0.2188 (   370 PWs)   bands (ev):

     7.0390  12.3710  12.8973  12.9021  13.8452  13.9938  34.5242  40.4347
    41.8493

          k = 0.0938-0.0938 0.1562 (   371 PWs)   bands (ev):

     6.3246  12.5104  12.7965  12.8031  13.8660  13.9717  37.7566  40.9887
    42.5855

          k = 0.0312-0.0312 0.0938 (   367 PWs)   bands (ev):

     5.8979  12.6187  12.7083  12.7104  13.9235  13.9772  39.5777  42.7154
    43.4248

          k =-0.0312 0.1562 0.0312 (   369 PWs)   bands (ev):

     6.1131  12.5383  12.7714  12.7732  13.8498  14.0074  39.1939  41.6952
    42.3103

          k =-0.0938 0.2188-0.0312 (   372 PWs)   bands (ev):

     6.5348  12.4147  12.8695  12.8747  13.7570  14.0421  37.8386  39.6939
    41.7985

          k =-0.1562 0.2812-0.0938 (   372 PWs)   bands (ev):

     7.2402  12.2679  12.9520  12.9853  13.7208  14.1068  34.6825  38.7951
    41.2378

          k =-0.2188 0.3438-0.1562 (   375 PWs)   bands (ev):

     8.1558  12.1695  12.9237  13.0278  13.8604  14.2574  31.3456  38.2201
    40.5987

          k =-0.2812 0.4062-0.2188 (   377 PWs)   bands (ev):

     9.1110  12.2585  12.8061  12.9808  14.1667  14.5036  28.1779  37.7983
    39.9522

          k =-0.3438 0.4688-0.2812 (   378 PWs)   bands (ev):

     9.8046  12.6527  12.7376  12.8983  14.4956  14.8917  25.2971  37.5146
    39.4094

          k =-0.4062 0.5312-0.3438 (   381 PWs)   bands (ev):

    10.1021  12.5776  12.8177  13.3735  14.6821  15.5794  22.9028  37.3067
    39.1025

          k = 0.5312-0.4062 0.5938 (   383 PWs)   bands (ev):

    10.1783  12.5415  12.7798  13.7129  14.7223  16.2138  21.5967  37.0881
    39.1123

          k = 0.4688-0.3438 0.5312 (   383 PWs)   bands (ev):

    10.1449  12.5686  12.7916  13.5697  14.6346  15.8832  22.2974  36.8859
    39.3938

          k = 0.4062-0.2812 0.4688 (   378 PWs)   bands (ev):

     9.9453  12.6519  12.8474  12.9839  14.4262  15.1913  24.4326  36.8081
    39.9230

          k = 0.3438-0.2188 0.4062 (   378 PWs)   bands (ev):

     9.3905  12.3906  12.7706  12.9439  14.1363  14.7254  27.1836  36.9194
    40.6930

          k = 0.2812-0.1562 0.3438 (   378 PWs)   bands (ev):

     8.4847  12.1890  12.8852  13.0200  13.8622  14.3971  30.2682  37.2314
    41.6033

          k = 0.2188-0.0938 0.2812 (   373 PWs)   bands (ev):

     7.5283  12.2451  12.9372  13.0068  13.7236  14.1677  33.5603  37.7399
    42.3985

          k = 0.1562-0.0312 0.2188 (   372 PWs)   bands (ev):

     6.7406  12.3879  12.8904  12.8928  13.7557  14.0468  36.8187  38.5562
    42.6940

          k = 0.0938 0.0312 0.1562 (   371 PWs)   bands (ev):

     6.2193  12.5242  12.7798  12.7936  13.8518  13.9938  38.5955  40.7387
    42.6265

          k =-0.0312 0.2812 0.0312 (   371 PWs)   bands (ev):

     6.8443  12.2762  12.9861  12.9885  13.6242  14.1078  38.0758  39.7140
    39.8272

          k =-0.0938 0.3438-0.0312 (   369 PWs)   bands (ev):

     7.4388  12.1104  13.0707  13.1366  13.5646  14.1814  36.1278  37.6437
    40.0505

          k =-0.1562 0.4062-0.0938 (   375 PWs)   bands (ev):

     8.2617  11.9643  12.9692  13.2286  13.7799  14.3181  32.7919  36.8943
    39.2879

          k =-0.2188 0.4688-0.1562 (   379 PWs)   bands (ev):

     9.1860  11.9173  12.7765  13.2208  14.2030  14.5633  29.5481  36.3949
    38.3340

          k =-0.2812 0.5312-0.2188 (   384 PWs)   bands (ev):

     9.9554  12.0871  12.6160  13.1513  14.5646  15.1053  26.5362  36.0694
    37.3735

          k =-0.3438 0.5938-0.2812 (   381 PWs)   bands (ev):

    10.3420  12.2988  12.7177  13.0702  14.7174  16.0760  23.8851  35.5977
    36.9033

          k = 0.5938-0.3438 0.6562 (   384 PWs)   bands (ev):

    10.4631  12.2924  12.9966  13.0509  14.7275  17.1536  21.9791  34.8584
    37.1825

          k = 0.5312-0.2812 0.5938 (   383 PWs)   bands (ev):

    10.4750  12.3223  12.9867  13.0789  14.6071  17.2035  21.9909  34.2256
    37.8876

          k = 0.4688-0.2188 0.5312 (   383 PWs)   bands (ev):

    10.3755  12.4226  12.7327  13.0287  14.3749  16.2644  23.9121  33.8381
    38.8575

          k = 0.4062-0.1562 0.4688 (   383 PWs)   bands (ev):

     9.9973  12.2551  12.5791  13.1071  14.0657  15.4512  26.5667  33.7283
    40.0258

          k = 0.3438-0.0938 0.4062 (   380 PWs)   bands (ev):

     9.2126  12.0422  12.7505  13.2052  13.7488  14.8887  29.5739  33.8955
    41.3957

          k = 0.2812-0.0312 0.3438 (   377 PWs)   bands (ev):

     8.2700  12.0868  12.8896  13.2084  13.5778  14.4775  32.7726  34.3633
    42.9620

          k = 0.2188 0.0312 0.2812 (   373 PWs)   bands (ev):

     7.4376  12.2331  12.9406  13.0379  13.6564  14.1916  34.7914  36.4017
    43.2377

          k = 0.1562 0.0938 0.2188 (   371 PWs)   bands (ev):

     6.8408  12.3851  12.8897  12.8953  13.7911  14.0235  35.6930  39.6960
    42.1336

          k =-0.0312 0.4062 0.0312 (   370 PWs)   bands (ev):

     7.9060  11.9219  13.2351  13.3108  13.4534  14.2487  36.4429  37.3942
    38.2391

          k =-0.0938 0.4688-0.0312 (   374 PWs)   bands (ev):

     8.5922  11.7431  13.0923  13.4933  13.7146  14.3589  34.3493  35.6354
    37.7847

          k =-0.1562 0.5312-0.0938 (   379 PWs)   bands (ev):

     9.3968  11.6214  12.8668  13.5452  14.2274  14.5874  31.1060  34.9811
    36.3916

          k =-0.2188 0.5938-0.1562 (   385 PWs)   bands (ev):

    10.1344  11.6231  12.6698  13.5014  14.6084  15.2513  28.0144  34.4243
    35.2186

          k =-0.2812 0.6562-0.2188 (   383 PWs)   bands (ev):

    10.5880  11.7714  12.5838  13.4196  14.7466  16.4341  25.1851  33.3873
    35.0189

          k = 0.6562-0.2812 0.7188 (   384 PWs)   bands (ev):

    10.7797  11.8942  12.6570  13.3395  14.7438  17.8909  22.8160  32.3251
    35.4271

          k = 0.5938-0.2188 0.6562 (   382 PWs)   bands (ev):

    10.8603  11.9679  12.6928  13.2886  14.6069  18.6469  21.9055  31.4870
    36.2206

          k = 0.5312-0.1562 0.5938 (   383 PWs)   bands (ev):

    10.8585  12.0948  12.4894  13.2881  14.3588  17.6055  23.5734  30.9303
    37.3171

          k = 0.4688-0.0938 0.5312 (   383 PWs)   bands (ev):

    10.6566  12.1135  12.2998  13.3384  14.0372  16.4293  26.1492  30.6828
    38.6259

          k = 0.4062-0.0312 0.4688 (   384 PWs)   bands (ev):

    10.0431  11.9269  12.5288  13.4302  13.6920  15.5595  29.0223  30.7947
    40.0691

          k = 0.3438 0.0312 0.4062 (   380 PWs)   bands (ev):

     9.1725  11.9766  12.7435  13.3672  13.5608  14.9231  30.8424  32.4825
    41.5525

          k = 0.2812 0.0938 0.3438 (   376 PWs)   bands (ev):

     8.3430  12.1205  12.8887  13.1193  13.6993  14.4491  31.5049  35.7606
    42.3505

          k = 0.2188 0.1562 0.2812 (   373 PWs)   bands (ev):

     7.7067  12.2657  12.9317  12.9657  13.8334  14.1284  32.3418  39.1065
    41.5669

          k =-0.0312 0.5312 0.0312 (   375 PWs)   bands (ev):

     9.0919  11.5355  13.2619  13.7122  13.7990  14.4100  34.5441  35.1944
    35.7757

          k =-0.0938 0.5938-0.0312 (   378 PWs)   bands (ev):

     9.6700  11.3732  13.2174  13.9072  14.2134  14.5750  32.6552  33.6815
    34.4184

          k =-0.1562 0.6562-0.0938 (   382 PWs)   bands (ev):

    10.2113  11.2948  13.0567  13.9095  14.6260  15.3012  29.6618  32.5225
    33.5413

          k =-0.2188 0.7188-0.1562 (   385 PWs)   bands (ev):

    10.6170  11.3314  12.8925  13.8350  14.7681  16.6437  26.7710  31.1351
    33.4572

          k = 0.7188-0.2188 0.7812 (   385 PWs)   bands (ev):

    10.8805  11.4532  12.7539  13.7408  14.7676  18.3357  24.1478  29.9347
    33.8302

          k = 0.6562-0.1562 0.7188 (   387 PWs)   bands (ev):

    11.0816  11.5837  12.6083  13.6558  14.6305  19.9586  22.2238  28.9903
    34.6038

          k = 0.5938-0.0938 0.6562 (   390 PWs)   bands (ev):

    11.2267  11.7382  12.3768  13.5984  14.3892  19.1984  23.3136  28.3514
    35.7158

          k = 0.5312-0.0312 0.5938 (   386 PWs)   bands (ev):

    11.1895  11.9747  12.0761  13.5622  14.1040  17.6839  25.6917  28.1437
    37.0782

          k = 0.4688 0.0312 0.5312 (   382 PWs)   bands (ev):

    10.7500  11.9568  12.2668  13.4745  13.8949  16.4576  27.3092  29.3381
    38.5776

          k = 0.4062 0.0938 0.4688 (   382 PWs)   bands (ev):

    10.0257  12.0379  12.5470  13.2673  13.8721  15.5238  27.7867  32.1922
    40.0581

          k = 0.3438 0.1562 0.4062 (   379 PWs)   bands (ev):

     9.2879  12.1782  12.7615  13.0617  13.9435  14.8214  28.3367  35.4077
    41.0873

          k = 0.2812 0.2188 0.3438 (   376 PWs)   bands (ev):

     8.6867  12.2930  12.8760  12.9390  14.0341  14.3343  29.1074  38.6229
    40.9408

          k =-0.0312 0.6562 0.0312 (   383 PWs)   bands (ev):

     9.9434  11.1766  13.7850  14.1434  14.3659  14.5685  32.1370  32.9606
    33.3431

          k =-0.0938 0.7188-0.0312 (   379 PWs)   bands (ev):

    10.1981  11.0553  13.7947  14.3219  14.6239  15.2963  30.4355  31.4071
    32.3740

          k =-0.1562 0.7812-0.0938 (   384 PWs)   bands (ev):

    10.4399  11.0338  13.5690  14.2612  14.7788  16.7478  28.4406  29.2177
    32.1912

          k = 0.7812-0.1562 0.8438 (   383 PWs)   bands (ev):

    10.6787  11.1164  13.2828  14.1555  14.7971  18.5198  25.8546  27.9048
    32.4678

          k = 0.7188-0.0938 0.7812 (   385 PWs)   bands (ev):

    10.9326  11.2719  12.9519  14.0354  14.6788  20.4937  23.4295  26.9850
    33.1739

          k = 0.6562-0.0312 0.7188 (   384 PWs)   bands (ev):

    11.2025  11.4551  12.5876  13.8961  14.4813  21.0514  22.7455  26.5520
    34.2511

          k = 0.5938 0.0312 0.6562 (   387 PWs)   bands (ev):

    11.3358  11.6881  12.2801  13.7037  14.3025  19.2389  24.1642  27.2207
    35.6151

          k = 0.5312 0.0938 0.5938 (   386 PWs)   bands (ev):

    11.0510  12.0146  12.2433  13.4445  14.2154  17.6639  24.6573  29.3958
    37.1579

          k = 0.4688 0.1562 0.5312 (   384 PWs)   bands (ev):

    10.5187  12.3377  12.4023  13.1777  14.2093  16.3681  24.9731  32.2282
    38.7200

          k = 0.4062 0.2188 0.4688 (   382 PWs)   bands (ev):

     9.9673  12.5697  12.6180  12.9685  14.2531  15.3403  25.4421  35.2992
    39.9661

          k = 0.3438 0.2812 0.4062 (   377 PWs)   bands (ev):

     9.5118  12.6797  12.7711  12.8564  14.3216  14.6119  26.1249  38.2412
    40.4036

          k =-0.0312 0.7812 0.0312 (   384 PWs)   bands (ev):

    10.1967  10.8952  14.4471  14.5253  14.7066  15.6441  28.7732  31.5842
    31.9498

          k =-0.0938 0.8438-0.0312 (   382 PWs)   bands (ev):

    10.2642  10.8321  14.3221  14.6304  14.7762  16.8833  27.3280  30.3534
    31.2843

          k = 0.8438-0.0938 0.9062 (   380 PWs)   bands (ev):

    10.4144  10.8779  13.9725  14.5079  14.8345  18.4796  26.1984  27.9857
    31.4282

          k = 0.7812-0.0312 0.8438 (   380 PWs)   bands (ev):

    10.6426  11.0247  13.5059  14.3561  14.7549  20.1183  25.1002  26.0714
    32.0333

          k = 0.7188 0.0312 0.7812 (   384 PWs)   bands (ev):

    10.9277  11.2410  13.0016  14.1228  14.6338  21.3256  23.1632  26.1127
    33.0412

          k = 0.6562 0.0938 0.7188 (   385 PWs)   bands (ev):

    11.1658  11.4946  12.5943  13.8000  14.5467  20.7520  22.3207  27.5525
    34.3688

          k = 0.5938 0.1562 0.6562 (   383 PWs)   bands (ev):

    11.0559  11.8342  12.5253  13.4477  14.5028  19.0443  22.4447  29.8497
    35.9173

          k = 0.5312 0.2188 0.5938 (   382 PWs)   bands (ev):

    10.6600  12.2024  12.7718  13.1315  14.4950  17.4696  22.6532  32.5630
    37.5570

          k = 0.4688 0.2812 0.5312 (   381 PWs)   bands (ev):

    10.2474  12.4999  12.8908  13.1387  14.5197  16.1061  23.0088  35.4415
    39.0524

          k = 0.4062 0.3438 0.4688 (   379 PWs)   bands (ev):

     9.9396  12.6750  12.7712  13.4521  14.5793  15.0119  23.5513  37.9729
    40.1109

          k =-0.0312 0.9062 0.0312 (   386 PWs)   bands (ev):

    10.1877  10.7270  14.7287  14.7619  14.8438  17.3584  26.0702  30.7835
    31.1252

          k = 0.9062-0.0312 0.9688 (   383 PWs)   bands (ev):

    10.2334  10.7315  14.5728  14.7089  14.8872  18.2285  25.3752  29.8923
    30.7987

          k = 0.8438 0.0312 0.9062 (   381 PWs)   bands (ev):

    10.3984  10.8460  14.0620  14.5623  14.8406  19.0483  25.4356  27.8326
    31.2718

          k = 0.7812 0.0938 0.8438 (   382 PWs)   bands (ev):

    10.6586  11.0549  13.4280  14.2805  14.7773  19.4601  25.4777  26.6829
    32.1791

          k = 0.7188 0.1562 0.7812 (   384 PWs)   bands (ev):

    10.9251  11.3412  12.8627  13.8987  14.7319  19.4191  23.7538  28.3439
    33.4377

          k = 0.6562 0.2188 0.7188 (   383 PWs)   bands (ev):

    10.9507  11.7202  12.6296  13.4966  14.7011  18.9296  22.4390  30.6129
    34.9555

          k = 0.5938 0.2812 0.6562 (   384 PWs)   bands (ev):

    10.6594  12.1263  12.8656  13.1385  14.6848  17.9727  21.7859  33.1847
    36.6322

          k = 0.5312 0.3438 0.5938 (   385 PWs)   bands (ev):

    10.3128  12.4395  12.8698  13.3943  14.6853  16.7753  21.6411  35.8146
    38.3566

          k = 0.4688 0.4062 0.5312 (   382 PWs)   bands (ev):

    10.0739  12.6201  12.7214  14.0083  14.7109  15.6032  21.8070  37.8314
    40.1153

          k =-0.0312-0.9688 0.0312 (   388 PWs)   bands (ev):

    10.1752  10.6924  14.7557  14.8257  14.8902  17.8905  25.3505  30.6181
    30.9552

          k =-0.0938-0.9062-0.0312 (   382 PWs)   bands (ev):

    10.2471  10.7654  14.4827  14.6949  14.8430  17.6956  26.1072  30.0477
    30.9622

          k =-0.1562-0.8438-0.0938 (   382 PWs)   bands (ev):

    10.4361  10.9411  13.8028  14.4041  14.8161  17.6338  27.4039  28.3219
    31.7369

          k =-0.2188-0.7812-0.1562 (   383 PWs)   bands (ev):

    10.6779  11.2097  13.0920  14.0023  14.7966  17.5444  26.2722  29.4436
    32.8948

          k =-0.2812-0.7188-0.2188 (   385 PWs)   bands (ev):

    10.7748  11.6017  12.6518  13.5775  14.7744  17.3269  24.6251  31.6440
    34.3513

          k =-0.3438-0.6562-0.2812 (   382 PWs)   bands (ev):

    10.5752  12.0924  12.6880  13.1949  14.7509  16.9253  23.3043  34.0469
    36.0405

          k =-0.4062-0.5938-0.3438 (   381 PWs)   bands (ev):

    10.2766  12.4478  12.8958  13.2184  14.7288  16.3254  22.3706  36.3144
    37.9834

          k =-0.0312-0.8438 0.0312 (   385 PWs)   bands (ev):

    10.2026  10.7953  14.6362  14.6581  14.7731  16.5325  27.2802  31.1088
    31.4600

          k =-0.0938-0.7812-0.0312 (   380 PWs)   bands (ev):

    10.2616  10.9298  14.0925  14.4993  14.7073  16.0298  28.8212  30.8028
    31.7569

          k =-0.1562-0.7188-0.0938 (   384 PWs)   bands (ev):

    10.3843  11.1532  13.3010  14.0921  14.7176  15.9493  29.0416  30.8070
    32.7858

          k =-0.2188-0.6562-0.1562 (   386 PWs)   bands (ev):

    10.4466  11.4728  12.7366  13.6650  14.7077  15.8704  27.3537  32.8787
    34.1722

          k =-0.2812-0.5938-0.2188 (   383 PWs)   bands (ev):

    10.3116  11.9414  12.5699  13.2754  14.6801  15.6852  25.8234  34.9666
    35.9609

          k =-0.3438-0.5312-0.2812 (   381 PWs)   bands (ev):

    10.0837  12.4936  12.7385  12.9704  14.6369  15.3816  24.5504  36.6998
    38.1549

          k =-0.0312-0.7188 0.0312 (   384 PWs)   bands (ev):

    10.1293  11.0236  14.1723  14.3470  14.6404  14.8733  30.4248  32.1992
    32.5822

          k =-0.0938-0.6562-0.0312 (   379 PWs)   bands (ev):

    10.0162  11.2048  13.4698  14.1196  14.4822  14.7956  31.7983  32.4097
    33.1629

          k =-0.1562-0.5938-0.0938 (   380 PWs)   bands (ev):

     9.8769  11.4528  12.9044  13.7243  14.4770  14.8388  30.3508  33.9807
    34.7101

          k =-0.2188-0.5312-0.1562 (   384 PWs)   bands (ev):

     9.6965  11.7731  12.6950  13.3516  14.4449  14.8129  28.7474  35.4718
    36.7921

          k =-0.2812-0.4688-0.2188 (   381 PWs)   bands (ev):

     9.5445  12.1923  12.7073  13.0521  14.3784  14.7251  27.3211  36.9535
    38.7989

          k =-0.0312-0.5938 0.0312 (   375 PWs)   bands (ev):

     9.5934  11.3492  13.4370  13.9282  14.0500  14.4910  33.5697  34.1266
    34.2185

          k =-0.0938-0.5312-0.0312 (   375 PWs)   bands (ev):

     9.1730  11.5548  13.1008  13.6958  13.9373  14.4582  33.4860  34.6628
    36.1202

          k =-0.1562-0.4688-0.0938 (   377 PWs)   bands (ev):

     8.8362  11.7941  12.9082  13.3786  13.9675  14.4405  31.9215  35.9320
    38.0079

          k =-0.2188-0.4062-0.1562 (   380 PWs)   bands (ev):

     8.6585  12.0512  12.8669  13.1124  13.9846  14.3996  30.4144  37.3117
    39.5662

          k =-0.0312-0.4688 0.0312 (   375 PWs)   bands (ev):

     8.5057  11.7288  13.2310  13.5041  13.5856  14.3282  35.4969  36.2574
    37.2975

          k =-0.0938-0.4062-0.0312 (   374 PWs)   bands (ev):

     7.9978  11.9308  13.1125  13.3055  13.5745  14.2665  35.2358  36.6322
    39.1200

          k =-0.1562-0.3438-0.0938 (   372 PWs)   bands (ev):

     7.7200  12.1249  12.9899  13.0975  13.6991  14.2066  33.7135  37.8550
    40.2984

          k =-0.0312-0.3438 0.0312 (   369 PWs)   bands (ev):

     7.3421  12.1069  13.1259  13.1376  13.5038  14.1744  37.3244  38.5900
    38.9105

          k =-0.0938-0.2812-0.0312 (   372 PWs)   bands (ev):

     6.9450  12.2742  12.9735  12.9903  13.6496  14.1057  37.0041  38.6633
    40.9147

          k =-0.0312-0.2188 0.0312 (   371 PWs)   bands (ev):

     6.4308  12.4222  12.8650  12.8663  13.7465  14.0515  38.6902  40.6666
    41.0813

          k =-0.0938 0.0938 0.0938 (   369 PWs)   bands (ev):

     6.1126  12.5722  12.7513  12.7513  13.9330  13.9330  38.6183  41.5057
    43.7200

          k =-0.1562 0.1562 0.0312 (   371 PWs)   bands (ev):

     6.4299  12.4771  12.8158  12.8344  13.8258  13.9992  37.7446  39.6392
    42.8793

          k =-0.2188 0.2188-0.0312 (   371 PWs)   bands (ev):

     7.0440  12.3284  12.9169  12.9454  13.7171  14.0966  35.7911  37.4525
    43.2709

          k =-0.2812 0.2812-0.0938 (   379 PWs)   bands (ev):

     7.9001  12.1967  12.9220  13.0519  13.6986  14.2880  32.5001  36.7250
    42.9344

          k =-0.3438 0.3438-0.1562 (   379 PWs)   bands (ev):

     8.8691  12.1944  12.8399  13.0270  13.8717  14.5894  29.2655  36.2918
    41.8370

          k =-0.4062 0.4062-0.2188 (   380 PWs)   bands (ev):

     9.6813  12.5072  12.7164  12.9324  14.1553  14.9953  26.2722  36.0819
    40.7960

          k =-0.4688 0.4688-0.2812 (   384 PWs)   bands (ev):

    10.0922  12.5976  12.8493  13.1325  14.4369  15.5803  23.6687  36.1050
    40.0515

          k = 0.4688-0.4688 0.6562 (   386 PWs)   bands (ev):

    10.2147  12.5223  12.8092  13.5614  14.6473  16.2989  21.8642  36.3598
    39.6868

          k = 0.4062-0.4062 0.5938 (   383 PWs)   bands (ev):

    10.2116  12.5084  12.8207  13.5161  14.7438  16.2573  21.8596  36.8087
    39.2018

          k = 0.3438-0.3438 0.5312 (   381 PWs)   bands (ev):

    10.0832  12.5578  12.8777  13.0563  14.7126  15.4098  23.6584  37.3769
    38.7287

          k = 0.2812-0.2812 0.4688 (   381 PWs)   bands (ev):

     9.6697  12.4261  12.7039  12.9607  14.5733  14.6627  26.2606  37.9924
    38.6156

          k = 0.2188-0.2188 0.4062 (   376 PWs)   bands (ev):

     8.8613  12.1409  12.8394  13.0346  14.1432  14.3785  29.2553  38.6100
    38.8256

          k = 0.1562-0.1562 0.3438 (   374 PWs)   bands (ev):

     7.8974  12.1454  12.9630  13.0515  13.8017  14.2020  32.4962  39.1911
    39.3225

          k = 0.0938-0.0938 0.2812 (   372 PWs)   bands (ev):

     7.0442  12.2742  12.9672  12.9827  13.6831  14.0985  35.8554  39.7280
    40.0798

          k =-0.0938 0.2188 0.0938 (   370 PWs)   bands (ev):

     6.6375  12.4083  12.8734  12.8804  13.7762  14.0276  36.8127  40.3691
    41.3425

          k =-0.1562 0.2812 0.0312 (   371 PWs)   bands (ev):

     7.1444  12.2635  12.9559  13.0028  13.6715  14.1235  35.8795  37.5118
    42.1364

          k =-0.2188 0.3438-0.0312 (   377 PWs)   bands (ev):

     7.9097  12.1083  12.9404  13.1643  13.6211  14.3182  33.8318  35.4071
    42.3622

          k =-0.2812 0.4062-0.0938 (   378 PWs)   bands (ev):

     8.8381  12.0207  12.8139  13.2081  13.7736  14.6426  30.5751  34.8498
    40.9397

          k =-0.3438 0.4688-0.1562 (   384 PWs)   bands (ev):

     9.7142  12.1355  12.6439  13.1339  14.0872  15.1103  27.4806  34.5826
    39.5525

          k =-0.4062 0.5312-0.2188 (   381 PWs)   bands (ev):

    10.2374  12.4487  12.5980  13.0487  14.3973  15.8130  24.6923  34.5760
    38.3308

          k = 0.5312-0.4062 0.7188 (   384 PWs)   bands (ev):

    10.4134  12.3643  12.9580  13.0576  14.6065  16.7764  22.4625  34.8179
    37.3549

          k = 0.4688-0.3438 0.6562 (   383 PWs)   bands (ev):

    10.4390  12.3292  12.9650  13.1576  14.6932  17.2206  21.6866  35.1980
    36.7787

          k = 0.4062-0.2812 0.5938 (   381 PWs)   bands (ev):

    10.3702  12.3642  12.8714  13.0277  14.6548  16.3948  23.1026  35.3607
    36.9709

          k = 0.3438-0.2188 0.5312 (   382 PWs)   bands (ev):

    10.0973  12.2971  12.5779  13.0911  14.4718  15.4336  25.5672  35.3459
    37.8613

          k = 0.2812-0.1562 0.4688 (   381 PWs)   bands (ev):

     9.4368  12.0169  12.7064  13.1732  14.1477  14.8141  28.4744  35.4855
    39.0346

          k = 0.2188-0.0938 0.4062 (   376 PWs)   bands (ev):

     8.5158  11.9923  12.8842  13.2152  13.8033  14.4440  31.6485  35.8590
    40.2682

          k = 0.1562-0.0312 0.3438 (   372 PWs)   bands (ev):

     7.6298  12.1133  13.0011  13.1433  13.6193  14.2195  34.9522  36.5088
    41.3232

          k =-0.0938 0.3438 0.0938 (   374 PWs)   bands (ev):

     7.5334  12.1164  13.0447  13.1086  13.6299  14.1814  34.9128  38.8388
    39.0812

          k =-0.1562 0.4062 0.0312 (   376 PWs)   bands (ev):

     8.1787  11.9462  12.9918  13.3074  13.6556  14.3313  34.0499  35.5459
    40.0355

          k =-0.2188 0.4688-0.0312 (   377 PWs)   bands (ev):

     9.0064  11.8072  12.8070  13.4900  13.7828  14.6526  32.0548  33.5862
    38.7446

          k =-0.2812 0.5312-0.0938 (   381 PWs)   bands (ev):

     9.8593  11.7770  12.5896  13.4636  14.1184  15.1844  28.9130  33.1978
    37.1809

          k =-0.3438 0.5938-0.1562 (   382 PWs)   bands (ev):

    10.4659  11.9407  12.4328  13.3751  14.4360  16.0345  25.9849  33.1119
    35.7865

          k = 0.5938-0.3438 0.7812 (   382 PWs)   bands (ev):

    10.7123  12.0518  12.5526  13.2866  14.6175  17.2525  23.4364  33.2438
    34.7080

          k = 0.5312-0.2812 0.7188 (   383 PWs)   bands (ev):

    10.7799  12.0327  12.7405  13.2275  14.6571  18.3210  21.8505  33.1361
    34.4409

          k = 0.4688-0.2188 0.6562 (   384 PWs)   bands (ev):

    10.7649  12.0752  12.6316  13.2462  14.5730  17.7231  22.7454  32.6506
    35.1354

          k = 0.4062-0.1562 0.5938 (   382 PWs)   bands (ev):

    10.6158  12.1091  12.3655  13.3209  14.3664  16.4909  25.0963  32.3317
    36.2365

          k = 0.3438-0.0938 0.5312 (   384 PWs)   bands (ev):

    10.1355  11.8851  12.4827  13.4164  14.0508  15.5488  27.9202  32.2972
    37.5965

          k = 0.2812-0.0312 0.4688 (   379 PWs)   bands (ev):

     9.3145  11.8496  12.6995  13.4901  13.7200  14.9105  30.9828  32.5872
    39.1465

          k = 0.2188 0.0312 0.4062 (   377 PWs)   bands (ev):

     8.4423  11.9634  12.8921  13.3172  13.6597  14.4704  32.9182  34.4687
    40.6585

          k =-0.0938 0.4688 0.0938 (   378 PWs)   bands (ev):

     8.6748  11.7603  13.0191  13.4225  13.8590  14.3692  33.1208  36.5109
    37.3902

          k =-0.1562 0.5312 0.0312 (   377 PWs)   bands (ev):

     9.3310  11.5927  12.9088  13.6880  13.9998  14.6174  32.3580  33.7415
    36.4668

          k =-0.2188 0.5938-0.0312 (   382 PWs)   bands (ev):

    10.0290  11.4911  12.7204  13.8792  14.1604  15.2073  30.4974  31.9917
    34.8478

          k =-0.2812 0.6562-0.0938 (   386 PWs)   bands (ev):

    10.5971  11.5101  12.5397  13.7969  14.4715  16.1944  27.5271  31.7601
    33.3724

          k = 0.6562-0.2812 0.8438 (   385 PWs)   bands (ev):

    10.9159  11.6267  12.4559  13.6782  14.6449  17.6045  24.7901  31.5281
    32.4787

          k = 0.5938-0.2188 0.7812 (   381 PWs)   bands (ev):

    11.0838  11.6836  12.4792  13.5718  14.6642  19.2094  22.5582  30.7117
    32.7622

          k = 0.5312-0.1562 0.7188 (   383 PWs)   bands (ev):

    11.1735  11.7386  12.4075  13.5298  14.5512  19.2851  22.5539  29.9674
    33.5667

          k = 0.4688-0.0938 0.6562 (   386 PWs)   bands (ev):

    11.1357  11.8876  12.1479  13.5746  14.3261  17.8098  24.7973  29.5080
    34.6722

          k = 0.4062-0.0312 0.5938 (   385 PWs)   bands (ev):

    10.8236  11.8168  12.1990  13.6610  14.0197  16.5265  27.4610  29.4371
    36.0153

          k = 0.3438 0.0312 0.5312 (   382 PWs)   bands (ev):

    10.1465  11.7949  12.4635  13.6082  13.8368  15.5752  29.1649  30.8979
    37.5473

          k = 0.2812 0.0938 0.4688 (   378 PWs)   bands (ev):

     9.3571  11.9041  12.7026  13.3226  13.9245  14.8778  29.7109  33.9949
    39.1224

          k =-0.0938 0.5938 0.0938 (   378 PWs)   bands (ev):

     9.7408  11.3996  13.0943  13.7931  14.4743  14.5606  31.5060  34.2388
    34.4895

          k =-0.1562 0.6562 0.0312 (   382 PWs)   bands (ev):

    10.1571  11.2609  13.1312  14.1053  14.4242  15.2189  30.8679  32.0005
    32.9093

          k =-0.2188 0.7188-0.0312 (   387 PWs)   bands (ev):

    10.5195  11.2136  13.0072  14.2603  14.4833  16.3195  29.2080  30.4640
    31.3760

          k = 0.7188-0.2188 0.9062 (   387 PWs)   bands (ev):

    10.8004  11.2743  12.8337  14.1028  14.6795  17.8406  26.4577  29.5105
    31.0108

          k = 0.6562-0.1562 0.8438 (   384 PWs)   bands (ev):

    11.0345  11.3917  12.6471  13.9399  14.7124  19.6788  23.9290  28.4505
    31.4142

          k = 0.5938-0.0938 0.7812 (   386 PWs)   bands (ev):

    11.2860  11.4844  12.4214  13.8169  14.6069  20.9969  22.4725  27.6535
    32.2006

          k = 0.5312-0.0312 0.7188 (   388 PWs)   bands (ev):

    11.4766  11.6038  12.1258  13.7595  14.4094  19.4080  24.3568  27.3026
    33.2788

          k = 0.4688 0.0312 0.6562 (   388 PWs)   bands (ev):

    11.2699  11.8741  11.9631  13.6980  14.2185  17.8098  25.8602  28.2354
    34.5889

          k = 0.4062 0.0938 0.5938 (   386 PWs)   bands (ev):

    10.7398  11.9357  12.2491  13.4989  14.1848  16.5151  26.2831  30.7931
    36.0865

          k = 0.3438 0.1562 0.5312 (   381 PWs)   bands (ev):

    10.1171  12.0596  12.5189  13.2412  14.2679  15.4987  26.6966  33.8182
    37.6974

          k =-0.0938 0.7188 0.0938 (   381 PWs)   bands (ev):

    10.2619  11.0878  13.6083  14.1701  14.7233  15.5419  30.0485  30.7934
    32.8781

          k =-0.1562 0.7812 0.0312 (   385 PWs)   bands (ev):

    10.3869  10.9990  13.6653  14.4671  14.6596  16.5511  28.8942  29.8550
    31.1816

          k = 0.7812-0.1562 0.9688 (   387 PWs)   bands (ev):

    10.5498  11.0167  13.4671  14.4576  14.7347  18.0238  27.5392  28.4163
    30.0249

          k = 0.7188-0.0938 0.9062 (   385 PWs)   bands (ev):

    10.7536  11.1370  13.1639  14.2577  14.7985  19.7796  25.6849  26.7513
    30.3303

          k = 0.6562-0.0312 0.8438 (   383 PWs)   bands (ev):

    11.0040  11.3187  12.7887  14.0651  14.7226  21.6043  23.3690  26.1693
    31.0575

          k = 0.5938 0.0312 0.7812 (   386 PWs)   bands (ev):

    11.2962  11.4767  12.4077  13.8813  14.5804  21.2508  22.9682  26.6224
    32.0950

          k = 0.5312 0.0938 0.7188 (   386 PWs)   bands (ev):

    11.3548  11.6448  12.2451  13.6686  14.4707  19.3910  23.4648  28.4605
    33.3729

          k = 0.4688 0.1562 0.6562 (   383 PWs)   bands (ev):

    10.9523  11.9636  12.3796  13.4109  14.4577  17.7932  23.6913  31.0438
    34.8458

          k = 0.4062 0.2188 0.5938 (   384 PWs)   bands (ev):

    10.4865  12.2565  12.5828  13.1578  14.5289  16.4512  24.0227  33.9070
    36.4927

          k =-0.0938 0.8438 0.0938 (   381 PWs)   bands (ev):

    10.3230  10.8684  14.1477  14.4842  14.8271  17.1674  27.3672  29.3328
    31.7802

          k = 0.8438-0.0938 1.0312 (   379 PWs)   bands (ev):

    10.3614  10.8422  14.0815  14.6071  14.8368  18.2393  26.1823  29.1134
    30.4321

          k = 0.7812-0.0312 0.9688 (   382 PWs)   bands (ev):

    10.5021  10.9278  13.7378  14.4754  14.8863  19.4870  25.5037  27.9655
    29.5995

          k = 0.7188 0.0312 0.9062 (   382 PWs)   bands (ev):

    10.7320  11.1102  13.2463  14.2780  14.8279  20.4614  25.2860  26.1403
    30.2004

          k = 0.6562 0.0938 0.8438 (   384 PWs)   bands (ev):

    11.0212  11.3395  12.7369  14.0231  14.7203  20.7594  23.6180  27.0730
    31.1753

          k = 0.5938 0.1562 0.7812 (   384 PWs)   bands (ev):

    11.2147  11.5530  12.4463  13.7069  14.6415  20.2304  22.3415  29.1058
    32.4162

          k = 0.5312 0.2188 0.7188 (   381 PWs)   bands (ev):

    10.9764  11.8724  12.5766  13.3765  14.6191  18.9480  21.9785  31.5851
    33.8830

          k = 0.4688 0.2812 0.6562 (   383 PWs)   bands (ev):

    10.5911  12.2029  12.8916  13.0973  14.6548  17.5454  22.0552  34.1688
    35.6581

          k =-0.0938-1.0312 0.0938 (   379 PWs)   bands (ev):

    10.2899  10.7697  14.3944  14.6534  14.8588  18.5287  25.3967  28.8825
    31.2886

          k =-0.1562-0.9688 0.0312 (   380 PWs)   bands (ev):

    10.3455  10.8099  14.1800  14.6122  14.8865  18.7917  25.4258  28.9659
    30.2806

          k =-0.2188-0.9062-0.0312 (   383 PWs)   bands (ev):

    10.5214  10.9578  13.6408  14.4765  14.8327  18.8928  26.2949  28.1112
    29.7403

          k =-0.2812-0.8438-0.0938 (   385 PWs)   bands (ev):

    10.7851  11.1914  13.0167  14.2029  14.7471  18.8219  26.0501  27.9938
    30.5928

          k =-0.3438-0.7812-0.1562 (   386 PWs)   bands (ev):

    11.0092  11.4885  12.5434  13.8212  14.6910  18.5990  24.3163  30.0239
    31.7945

          k =-0.4062-0.7188-0.2188 (   383 PWs)   bands (ev):

    10.9130  11.8552  12.5161  13.4277  14.6600  18.1870  22.9418  32.2598
    33.3707

          k =-0.0938-0.9062 0.0938 (   379 PWs)   bands (ev):

    10.3043  10.8029  14.3117  14.5928  14.8509  17.9865  26.1403  29.0329
    31.4540

          k =-0.1562-0.8438 0.0312 (   382 PWs)   bands (ev):

    10.3830  10.9059  13.9040  14.5694  14.7520  17.4128  27.4216  29.4059
    30.7326

          k =-0.2188-0.7812-0.0312 (   389 PWs)   bands (ev):

    10.5636  11.1030  13.2437  14.3918  14.6120  17.1237  28.6328  29.2076
    30.4843

          k =-0.2812-0.7188-0.0938 (   385 PWs)   bands (ev):

    10.7560  11.3833  12.6567  13.9621  14.5913  16.9463  26.9497  30.9276
    31.7984

          k =-0.3438-0.6562-0.1562 (   383 PWs)   bands (ev):

    10.7363  11.7869  12.4127  13.5249  14.5627  16.7400  25.3480  32.4336
    33.9460

          k =-0.0938-0.7812 0.0938 (   379 PWs)   bands (ev):

    10.3226  10.9644  13.9071  14.3398  14.7842  16.3064  28.8284  29.8051
    32.2587

          k =-0.1562-0.7188 0.0312 (   385 PWs)   bands (ev):

    10.3313  11.1187  13.3899  14.3027  14.5602  15.7943  30.1507  30.7361
    31.8135

          k =-0.2188-0.6562-0.0312 (   385 PWs)   bands (ev):

    10.3563  11.3446  12.8143  14.0796  14.3382  15.6753  29.8164  31.2675
    32.9878

          k =-0.2812-0.5938-0.0938 (   382 PWs)   bands (ev):

    10.2909  11.6440  12.5210  13.6255  14.3114  15.6099  28.1836  32.4586
    35.2387

          k =-0.0938-0.6562 0.0938 (   380 PWs)   bands (ev):

    10.0831  11.2346  13.3085  13.9848  14.6475  14.9341  30.7784  32.4605
    33.6261

          k =-0.1562-0.5938 0.0312 (   382 PWs)   bands (ev):

     9.8185  11.4208  12.9611  13.8959  14.2293  14.8441  31.5851  32.8948
    34.6098

          k =-0.2188-0.5312-0.0312 (   379 PWs)   bands (ev):

     9.5569  11.6474  12.7318  13.6790  13.9629  14.8844  31.2459  32.7605
    36.7863

          k =-0.0938-0.5312 0.0938 (   377 PWs)   bands (ev):

     9.2492  11.5770  13.0083  13.6034  14.1243  14.4664  32.2876  35.4553
    35.9549

          k =-0.1562-0.4688 0.0312 (   378 PWs)   bands (ev):

     8.7616  11.7702  12.9402  13.4902  13.7937  14.4599  33.1824  34.6231
    38.3188

          k =-0.0938-0.4062 0.0938 (   374 PWs)   bands (ev):

     8.0869  11.9426  13.0570  13.2562  13.6837  14.2728  33.9984  37.6435
    38.3690

          k =-0.1562 0.1562 0.1562 (   368 PWs)   bands (ev):

     6.7377  12.4360  12.8571  12.8571  13.9132  13.9132  35.6151  40.8312
    43.1190

          k =-0.2188 0.2188 0.0938 (   370 PWs)   bands (ev):

     7.1403  12.3321  12.9151  12.9350  13.7670  14.0706  34.6017  38.7205
    42.7420

          k =-0.2812 0.2812 0.0312 (   375 PWs)   bands (ev):

     7.8169  12.1745  12.9244  13.1059  13.6103  14.3144  33.7543  35.3504
    43.8436

          k =-0.3438 0.3438-0.0312 (   379 PWs)   bands (ev):

     8.6974  12.0431  12.8326  13.2786  13.5377  14.6811  31.7761  33.3870
    42.9565

          k =-0.4062 0.4062-0.0938 (   382 PWs)   bands (ev):

     9.6174  12.0496  12.6694  13.2166  13.7765  15.1775  28.6447  33.0076
    41.5014

          k =-0.4688 0.4688-0.1562 (   384 PWs)   bands (ev):

    10.2687  12.3467  12.4875  13.1153  14.1079  15.8592  25.7313  32.9405
    40.3727

          k = 0.4688-0.4688 0.7812 (   385 PWs)   bands (ev):

    10.5150  12.3335  12.7997  13.0536  14.4163  16.8132  23.2293  33.1630
    39.2948

          k = 0.4062-0.4062 0.7188 (   385 PWs)   bands (ev):

    10.5571  12.2415  13.0052  13.0432  14.6461  17.6306  21.7387  33.6737
    38.0634

          k = 0.3438-0.3438 0.6562 (   381 PWs)   bands (ev):

    10.5097  12.2140  12.8678  13.0812  14.7589  17.0446  22.5327  34.4492
    37.2147

          k = 0.2812-0.2812 0.5938 (   379 PWs)   bands (ev):

    10.3241  12.1406  12.6175  13.1538  14.7415  15.8336  24.7956  35.4321
    36.7638

          k = 0.2188-0.2188 0.5312 (   384 PWs)   bands (ev):

     9.8178  11.9064  12.6586  13.2353  14.6145  14.8473  27.5975  36.5174
    36.7024

          k = 0.1562-0.1562 0.4688 (   375 PWs)   bands (ev):

     8.9809  11.8428  12.8490  13.2853  14.1516  14.4333  30.6995  37.0057
    37.5444

          k =-0.1562 0.2812 0.1562 (   372 PWs)   bands (ev):

     7.4295  12.2718  12.9448  12.9663  13.7921  14.0920  33.4823  39.8363
    40.5703

          k =-0.2188 0.3438 0.0938 (   375 PWs)   bands (ev):

     7.9929  12.1290  12.9353  13.1015  13.7197  14.2947  32.5751  36.7837
    41.5120

          k =-0.2812 0.4062 0.0312 (   378 PWs)   bands (ev):

     8.7786  11.9759  12.8134  13.3389  13.6088  14.6740  31.8483  33.4420
    41.1351

          k =-0.3438 0.4688-0.0312 (   381 PWs)   bands (ev):

     9.6680  11.8917  12.6129  13.4728  13.6710  15.2129  29.9716  31.6522
    39.5781

          k =-0.4062 0.5312-0.0938 (   385 PWs)   bands (ev):

    10.4086  12.0036  12.3925  13.3664  14.0183  15.9575  26.9993  31.4531
    38.0790

          k = 0.5312-0.4062 0.8438 (   384 PWs)   bands (ev):

    10.7457  12.1613  12.4028  13.2835  14.3374  17.0087  24.2921  31.5956
    36.7684

          k = 0.4688-0.3438 0.7812 (   382 PWs)   bands (ev):

    10.8135  12.0418  12.6899  13.2427  14.5706  18.2094  22.2111  32.0405
    35.6956

          k = 0.4062-0.2812 0.7188 (   384 PWs)   bands (ev):

    10.7799  11.9905  12.6958  13.2694  14.6933  18.1545  22.1958  32.7491
    34.9299

          k = 0.3438-0.2188 0.6562 (   383 PWs)   bands (ev):

    10.6537  11.9405  12.5334  13.3451  14.6855  16.8197  24.2540  33.5381
    34.6700

          k = 0.2812-0.1562 0.5938 (   383 PWs)   bands (ev):

    10.3007  11.7664  12.5411  13.4340  14.5250  15.6236  26.9581  33.8700
    35.4380

          k = 0.2188-0.0938 0.5312 (   379 PWs)   bands (ev):

     9.6056  11.6882  12.7197  13.5040  14.1923  14.8572  29.9767  34.1195
    36.8036

          k =-0.1562 0.4062 0.1562 (   376 PWs)   bands (ev):

     8.4243  11.9999  12.9239  13.1580  13.9192  14.3178  31.5682  38.1290
    38.4785

          k =-0.2188 0.4688 0.0938 (   378 PWs)   bands (ev):

     9.0681  11.8430  12.7972  13.3493  13.9742  14.6218  30.7817  34.9701
    38.6410

          k =-0.2812 0.5312 0.0312 (   381 PWs)   bands (ev):

     9.8359  11.7161  12.5827  13.6598  13.8878  15.2095  30.1783  31.8001
    37.1366

          k =-0.3438 0.5938-0.0312 (   386 PWs)   bands (ev):

    10.5606  11.6926  12.3362  13.7649  14.0252  16.0472  28.4249  30.2213
    35.5454

          k = 0.5938-0.3438 0.9062 (   386 PWs)   bands (ev):

    10.9976  11.8183  12.1728  13.6419  14.3445  17.2227  25.6410  30.2134
    34.1447

          k = 0.5312-0.2812 0.8438 (   383 PWs)   bands (ev):

    11.1409  11.7706  12.3393  13.5430  14.5527  18.7099  23.1792  30.5658
    32.9957

          k = 0.4688-0.2188 0.7812 (   380 PWs)   bands (ev):

    11.1459  11.7167  12.4410  13.5223  14.6343  19.5018  22.1244  31.1189
    32.2297

          k = 0.4062-0.1562 0.7188 (   382 PWs)   bands (ev):

    11.0475  11.7443  12.3381  13.6016  14.5862  18.1421  23.9343  31.1783
    32.5443

          k = 0.3438-0.0938 0.6562 (   386 PWs)   bands (ev):

    10.8096  11.6618  12.3273  13.7240  14.3958  16.6887  26.5507  30.9811
    33.7013

          k = 0.2812-0.0312 0.5938 (   385 PWs)   bands (ev):

    10.2846  11.5825  12.5101  13.8428  14.0765  15.6103  29.4387  31.0822
    35.1567

          k =-0.1562 0.5312 0.1562 (   381 PWs)   bands (ev):

     9.5225  11.6806  12.7897  13.4311  14.4912  14.5427  29.8920  35.9653
    36.1896

          k =-0.2188 0.5938 0.0938 (   382 PWs)   bands (ev):

    10.0666  11.5340  12.7037  13.6753  14.3991  15.2099  29.2369  33.2972
    34.9394

          k =-0.2812 0.6562 0.0312 (   386 PWs)   bands (ev):

    10.5973  11.4550  12.5293  14.0219  14.2588  16.1558  28.7703  30.4328
    33.2426

          k = 0.6562-0.2812 0.9688 (   387 PWs)   bands (ev):

    10.9935  11.4943  12.3390  14.0377  14.4013  17.4398  27.1701  29.0992
    31.7559

          k = 0.5938-0.2188 0.9062 (   387 PWs)   bands (ev):

    11.2171  11.5779  12.2385  13.8729  14.6051  19.0766  24.6017  29.2476
    30.5698

          k = 0.5312-0.1562 0.8438 (   385 PWs)   bands (ev):

    11.4001  11.5247  12.2292  13.7662  14.6681  20.7411  22.5512  29.2211
    30.2227

          k = 0.4688-0.0938 0.7812 (   385 PWs)   bands (ev):

    11.3904  11.6130  12.1201  13.7867  14.5915  19.7388  23.7669  28.6614
    31.0181

          k = 0.4062-0.0312 0.7188 (   387 PWs)   bands (ev):

    11.2262  11.6703  12.0644  13.8998  14.3929  18.0458  26.1916  28.4133
    32.1847

          k = 0.3438 0.0312 0.6562 (   385 PWs)   bands (ev):

    10.8551  11.5904  12.2820  13.9172  14.2165  16.6641  27.7572  29.6232
    33.6053

          k =-0.1562 0.6562 0.1562 (   386 PWs)   bands (ev):

    10.3126  11.3645  12.9153  13.7626  14.7217  15.5247  28.4765  32.7135
    34.1795

          k =-0.2188 0.7188 0.0938 (   387 PWs)   bands (ev):

    10.5546  11.2521  12.9701  14.0327  14.6620  16.4281  27.9757  30.9367
    32.2703

          k = 0.7188-0.2188 1.0312 (   388 PWs)   bands (ev):

    10.7769  11.2411  12.8470  14.2652  14.5856  17.7272  27.6783  29.0998
    29.9864

          k = 0.6562-0.1562 0.9688 (   387 PWs)   bands (ev):

    10.9600  11.3480  12.6499  14.1423  14.7203  19.3683  26.2768  27.9051
    28.8314

          k = 0.5938-0.0938 0.9062 (   386 PWs)   bands (ev):

    11.1271  11.5148  12.4145  13.9636  14.7837  21.2652  23.9263  27.2121
    29.0005

          k = 0.5312-0.0312 0.8438 (   385 PWs)   bands (ev):

    11.2887  11.6890  12.1288  13.8711  14.7151  21.6010  23.4055  26.7561
    29.7976

          k = 0.4688 0.0312 0.7812 (   385 PWs)   bands (ev):

    11.3768  11.7643  11.9429  13.8594  14.5663  19.7135  24.7364  27.4633
    30.9116

          k = 0.4062 0.0938 0.7188 (   387 PWs)   bands (ev):

    11.1619  11.6807  12.1762  13.7726  14.4847  18.0830  25.0781  29.7100
    32.2856

          k =-0.1562 0.7812 0.1562 (   384 PWs)   bands (ev):

    10.5405  11.1041  13.3659  14.1067  14.8165  17.0968  27.3621  29.2617
    32.8610

          k = 0.7812-0.1562 1.0938 (   383 PWs)   bands (ev):

    10.5946  11.0496  13.4085  14.3181  14.7816  18.1994  26.9827  27.8481
    31.2609

          k = 0.7188-0.0938 1.0312 (   384 PWs)   bands (ev):

    10.7117  11.1120  13.2035  14.3154  14.8303  19.6105  26.4150  27.1305
    29.0303

          k = 0.6562-0.0312 0.9688 (   385 PWs)   bands (ev):

    10.8790  11.2828  12.8687  14.1378  14.8864  21.1062  25.6056  26.0885
    28.2500

          k = 0.5938 0.0312 0.9062 (   384 PWs)   bands (ev):

    11.0913  11.5082  12.4649  13.9725  14.8258  22.1434  23.7116  26.2574
    28.8706

          k = 0.5312 0.0938 0.8438 (   385 PWs)   bands (ev):

    11.3355  11.6162  12.1709  13.8360  14.6990  21.4438  22.7607  27.8355
    29.9133

          k = 0.4688 0.1562 0.7812 (   386 PWs)   bands (ev):

    11.3083  11.6031  12.2876  13.6656  14.6209  19.7232  22.7770  30.1097
    31.2935

          k =-0.1562-1.0938 0.1562 (   380 PWs)   bands (ev):

    10.5162  10.9492  13.7427  14.3928  14.8116  18.9071  26.1315  26.9856
    32.0934

          k =-0.2188-1.0312 0.0938 (   379 PWs)   bands (ev):

    10.5504  10.9601  13.6616  14.4342  14.8319  19.7084  25.4655  26.8408
    30.8369

          k =-0.2812-0.9688 0.0312 (   382 PWs)   bands (ev):

    10.6877  11.0854  13.2934  14.3105  14.8863  20.2665  25.6035  26.9580
    28.8951

          k =-0.3438-0.9062-0.0312 (   387 PWs)   bands (ev):

    10.9094  11.3047  12.7894  14.1444  14.8288  20.3703  25.9675  26.7600
    28.3971

          k =-0.4062-0.8438-0.0938 (   388 PWs)   bands (ev):

    11.1838  11.5316  12.3296  13.9349  14.7067  20.1640  24.2184  28.4893
    29.3716

          k =-0.1562-0.9688 0.1562 (   381 PWs)   bands (ev):

    10.5001  10.9180  13.8257  14.4742  14.7902  19.5103  25.4157  26.7579
    31.9364

          k =-0.2188-0.9062 0.0938 (   382 PWs)   bands (ev):

    10.5687  10.9900  13.5721  14.3985  14.8138  19.0933  26.2064  27.0541
    30.9790

          k =-0.2812-0.8438 0.0312 (   389 PWs)   bands (ev):

    10.7496  11.1644  13.0443  14.3077  14.7255  18.6802  27.2381  27.8672
    29.3249

          k =-0.3438-0.7812-0.0312 (   388 PWs)   bands (ev):

    11.0052  11.4118  12.4830  14.1118  14.5730  18.3573  26.6737  28.6154
    30.0599

          k =-0.1562-0.8438 0.1562 (   382 PWs)   bands (ev):

    10.5376  11.0116  13.5838  14.2630  14.8254  18.0227  26.8772  27.8039
    32.4038

          k =-0.2188-0.7812 0.0938 (   387 PWs)   bands (ev):

    10.6040  11.1380  13.1954  14.1923  14.7337  17.2710  27.4627  29.3040
    31.6828

          k =-0.2812-0.7188 0.0312 (   388 PWs)   bands (ev):

    10.7477  11.3394  12.6555  14.1702  14.4272  16.8670  28.1811  29.8323
    31.4454

          k =-0.1562-0.7188 0.1562 (   386 PWs)   bands (ev):

    10.4838  11.2237  13.1237  13.9368  14.7815  16.2466  27.8803  30.9396
    33.4563

          k =-0.2188-0.6562 0.0938 (   385 PWs)   bands (ev):

    10.3890  11.3864  12.7887  13.8554  14.5550  15.7317  28.5677  32.3785
    33.2658

          k =-0.1562-0.5938 0.1562 (   384 PWs)   bands (ev):

     9.9868  11.5191  12.7998  13.5919  14.6406  14.9435  29.1492  34.5054
    35.0195

          k =-0.2188 0.2188 0.2188 (   374 PWs)   bands (ev):

     7.6087  12.3221  12.9201  12.9201  13.9735  13.9735  32.2618  40.3596
    42.5706

          k =-0.2812 0.2812 0.1562 (   375 PWs)   bands (ev):

     8.0630  12.2400  12.9170  12.9835  13.8345  14.2408  31.2698  38.1585
    42.1325

          k =-0.3438 0.3438 0.0938 (   378 PWs)   bands (ev):

     8.7563  12.0923  12.8359  13.1516  13.6925  14.6495  30.5045  34.7962
    42.4674

          k =-0.4062 0.4062 0.0312 (   380 PWs)   bands (ev):

     9.6031  11.9607  12.6565  13.3863  13.5868  15.2142  29.9005  31.5985
    41.7057

          k =-0.4688 0.4688-0.0312 (   381 PWs)   bands (ev):

    10.4123  11.9497  12.4187  13.4188  13.7727  15.9657  28.1346  30.0222
    40.6482

          k = 0.4688-0.4688 0.9062 (   383 PWs)   bands (ev):

    10.8697  12.1656  12.2074  13.3636  14.1074  16.9900  25.3684  29.9956
    38.8546

          k = 0.4062-0.4062 0.8438 (   382 PWs)   bands (ev):

    10.9603  11.9801  12.5285  13.3472  14.4215  18.2900  22.9483  30.3470
    37.3334

          k = 0.3438-0.3438 0.7812 (   384 PWs)   bands (ev):

    10.9065  11.8557  12.6659  13.3751  14.6591  18.9119  21.9563  31.0098
    36.1525

          k = 0.2812-0.2812 0.7188 (   385 PWs)   bands (ev):

    10.7786  11.7531  12.6470  13.4392  14.7792  17.5996  23.6410  31.9528
    35.3593

          k = 0.2188-0.2188 0.6562 (   384 PWs)   bands (ev):

    10.5168  11.6046  12.6625  13.5214  14.7660  16.1096  26.2213  33.1369
    34.9810

          k =-0.2188 0.3438 0.2188 (   376 PWs)   bands (ev):

     8.3909  12.2267  12.9032  12.9721  13.9889  14.2432  30.1875  39.2944
    40.0134

          k =-0.2812 0.4062 0.1562 (   379 PWs)   bands (ev):

     8.9521  12.1136  12.8128  13.0821  13.9672  14.5829  29.3367  36.3392
    40.5256

          k =-0.3438 0.4688 0.0938 (   383 PWs)   bands (ev):

     9.6842  11.9721  12.6244  13.2928  13.8770  15.1785  28.7125  33.0617
    39.5736

          k =-0.4062 0.5312 0.0312 (   384 PWs)   bands (ev):

    10.4609  11.8777  12.3656  13.5283  13.8431  15.9856  28.2083  30.0738
    38.0315

          k = 0.5312-0.4062 0.9688 (   385 PWs)   bands (ev):

    11.0394  11.9462  12.0887  13.5804  14.0475  17.0649  26.5490  28.7430
    36.5529

          k = 0.4688-0.3438 0.9062 (   389 PWs)   bands (ev):

    11.2099  11.8311  12.2560  13.5554  14.3420  18.4651  24.0195  28.8847
    35.2428

          k = 0.4062-0.2812 0.8438 (   383 PWs)   bands (ev):

    11.1451  11.6803  12.4953  13.5725  14.5803  19.7768  22.1573  29.4379
    34.1619

          k = 0.3438-0.2188 0.7812 (   385 PWs)   bands (ev):

    10.9877  11.5890  12.5875  13.6492  14.7145  18.7854  23.2668  30.2917
    33.3781

          k = 0.2812-0.1562 0.7188 (   384 PWs)   bands (ev):

    10.7668  11.4723  12.6562  13.7555  14.7130  17.1027  25.7376  31.3752
    32.9768

          k =-0.2188 0.4688 0.2188 (   379 PWs)   bands (ev):

     9.3497  12.0336  12.7452  13.1227  14.4280  14.5044  28.3921  37.7184
    37.7542

          k =-0.2812 0.5312 0.1562 (   381 PWs)   bands (ev):

     9.9013  11.9010  12.6014  13.2921  14.3535  15.1408  27.6811  34.6698
    37.2641

          k =-0.3438 0.5938 0.0938 (   386 PWs)   bands (ev):

    10.5246  11.7815  12.3684  13.5657  14.2334  16.0413  27.1985  31.6041
    35.6208

          k = 0.5938-0.3438 1.0312 (   387 PWs)   bands (ev):

    11.0940  11.7457  12.0786  13.7943  14.2068  17.2104  26.7859  28.8844
    34.0590

          k = 0.5312-0.2812 0.9688 (   387 PWs)   bands (ev):

    11.4069  11.7574  11.9378  13.7958  14.3957  18.6970  25.2518  27.8115
    32.7015

          k = 0.4688-0.2188 0.9062 (   386 PWs)   bands (ev):

    11.4718  11.4934  12.2154  13.7654  14.5921  20.4165  23.0163  28.1171
    31.5827

          k = 0.4062-0.1562 0.8438 (   385 PWs)   bands (ev):

    11.2267  11.5038  12.3868  13.8341  14.6829  20.2710  23.1253  28.8342
    30.7598

          k = 0.3438-0.0938 0.7812 (   388 PWs)   bands (ev):

    11.0114  11.4323  12.5054  13.9900  14.6344  18.4436  25.5003  29.6335
    30.4750

          k =-0.2188 0.5938 0.2188 (   384 PWs)   bands (ev):

    10.2202  11.7610  12.6216  13.3696  14.7033  15.4064  26.8729  34.9051
    35.7869

          k =-0.2812 0.6562 0.1562 (   383 PWs)   bands (ev):

    10.5943  11.6187  12.5583  13.5917  14.6423  16.2826  26.3086  32.8974
    33.8619

          k = 0.6562-0.2812 1.0938 (   388 PWs)   bands (ev):

    10.9667  11.5381  12.3812  13.8719  14.5279  17.4969  25.9823  30.4048
    31.8945

          k = 0.5938-0.2188 1.0312 (   386 PWs)   bands (ev):

    11.2185  11.6089  12.1589  13.9644  14.5673  19.0169  25.6891  28.0122
    30.4240

          k = 0.5312-0.1562 0.9688 (   387 PWs)   bands (ev):

    11.2732  11.7967  11.9978  13.8902  14.7153  20.8281  24.3282  27.1666
    29.2664

          k = 0.4688-0.0938 0.9062 (   387 PWs)   bands (ev):

    11.2375  11.7254  12.1173  13.8791  14.7813  21.9711  23.1597  27.5071
    28.5221

          k = 0.4062-0.0312 0.8438 (   387 PWs)   bands (ev):

    11.1489  11.5649  12.2929  13.9910  14.7171  20.0839  25.2908  27.6171
    28.8744

          k =-0.2188 0.7188 0.2188 (   386 PWs)   bands (ev):

    10.6943  11.4515  12.7786  13.6850  14.7994  16.9515  25.6478  31.3599
    34.2930

          k = 0.7188-0.2188 1.1562 (   385 PWs)   bands (ev):

    10.8387  11.3447  12.8037  13.9132  14.7470  18.0526  25.2509  29.7039
    32.4334

          k = 0.6562-0.1562 1.0938 (   387 PWs)   bands (ev):

    10.9899  11.3583  12.6503  14.0660  14.7220  19.4808  25.1092  28.2569
    29.9038

          k = 0.5938-0.0938 1.0312 (   389 PWs)   bands (ev):

    11.0816  11.5352  12.4087  13.9932  14.8276  21.1602  25.0057  26.8869
    27.9589

          k = 0.5312-0.0312 0.9688 (   387 PWs)   bands (ev):

    11.1407  11.7973  12.1173  13.8986  14.8866  22.9122  23.8770  26.1615
    27.3936

          k = 0.4688 0.0312 0.9062 (   387 PWs)   bands (ev):

    11.1870  11.8001  12.0714  13.8988  14.8267  21.9717  24.0403  26.8023
    27.9462

          k =-0.2188-1.1562 0.2188 (   383 PWs)   bands (ev):

    10.7923  11.2163  13.0920  14.0152  14.7758  18.9414  24.7526  28.0836
    33.3025

          k =-0.2812-1.0938 0.1562 (   384 PWs)   bands (ev):

    10.8310  11.1895  13.0808  14.1566  14.7445  20.0912  24.5247  26.8181
    31.7848

          k =-0.3438-1.0312 0.0938 (   382 PWs)   bands (ev):

    10.9230  11.2934  12.8427  14.1139  14.8262  21.2799  24.5703  26.0739
    29.5163

          k =-0.4062-0.9688 0.0312 (   386 PWs)   bands (ev):

    11.0433  11.5199  12.4746  13.9881  14.8865  21.9922  24.8355  26.0322
    27.7231

          k =-0.2188-1.0312 0.2188 (   383 PWs)   bands (ev):

    10.7712  11.1206  13.2782  14.2493  14.6851  20.6721  24.1647  25.9865
    32.8673

          k =-0.2812-0.9688 0.1562 (   382 PWs)   bands (ev):

    10.8153  11.1615  13.1494  14.2142  14.7340  20.8277  24.2741  26.0128
    31.6549

          k =-0.3438-0.9062 0.0938 (   384 PWs)   bands (ev):

    10.9499  11.3140  12.7728  14.1025  14.7890  20.5112  24.8019  26.9255
    29.6396

          k =-0.2188-0.9062 0.2188 (   384 PWs)   bands (ev):

    10.7829  11.1514  13.2129  14.1568  14.7290  19.9451  24.4203  26.7772
    33.0131

          k =-0.2812-0.8438 0.1562 (   383 PWs)   bands (ev):

    10.8480  11.2493  12.9573  14.0517  14.7536  19.0822  24.8503  28.1361
    32.0438

          k =-0.2188-0.7812 0.2188 (   385 PWs)   bands (ev):

    10.7740  11.3179  12.9361  13.8529  14.8021  17.9106  25.1578  29.6522
    33.7311

          k =-0.2812 0.2812 0.2812 (   374 PWs)   bands (ev):

     8.5948  12.3686  12.8915  12.8915  14.1505  14.1505  29.0304  39.7492
    42.1218

          k =-0.3438 0.3438 0.2188 (   379 PWs)   bands (ev):

     9.0268  12.3540  12.8405  12.9246  14.0529  14.5087  28.1063  37.7592
    41.2776

          k =-0.4062 0.4062 0.1562 (   382 PWs)   bands (ev):

     9.6441  12.2307  12.6913  13.0627  13.9694  15.1043  27.4138  34.5346
    41.1638

          k =-0.4688 0.4688 0.0938 (   383 PWs)   bands (ev):

    10.3564  12.0892  12.4433  13.2746  13.9278  15.9311  26.9326  31.3972
    40.5337

          k = 0.4688-0.4688 1.0312 (   383 PWs)   bands (ev):

    10.9938  12.0238  12.1403  13.4870  13.9834  17.0154  26.4691  28.6949
    38.7658

          k = 0.4062-0.4062 0.9688 (   386 PWs)   bands (ev):

    11.2815  11.8438  12.1863  13.6126  14.1895  18.4039  24.8940  27.6380
    37.0205

          k = 0.3438-0.3438 0.9062 (   387 PWs)   bands (ev):

    11.2075  11.6197  12.4911  13.6878  14.4609  19.9981  22.7058  27.9085
    35.5587

          k = 0.2812-0.2812 0.8438 (   385 PWs)   bands (ev):

    11.0051  11.4603  12.7394  13.7654  14.6866  19.7624  22.8301  28.6267
    34.4438

          k =-0.2812 0.4062 0.2812 (   379 PWs)   bands (ev):

     9.3021  12.4541  12.7915  12.9073  14.3376  14.4494  27.1064  38.7276
    39.6941

          k =-0.3438 0.4688 0.2188 (   379 PWs)   bands (ev):

     9.7547  12.3820  12.6667  13.0012  14.2957  15.0113  26.3377  36.1160
    39.4923

          k =-0.4062 0.5312 0.1562 (   385 PWs)   bands (ev):

    10.3261  12.2292  12.4460  13.1978  14.2123  15.9002  25.7943  32.9933
    38.1758

          k = 0.5312-0.4062 1.0938 (   385 PWs)   bands (ev):

    10.9168  12.0619  12.1756  13.4478  14.1781  17.0490  25.4365  30.0526
    36.6235

          k = 0.4688-0.3438 1.0312 (   388 PWs)   bands (ev):

    11.3472  11.7889  12.1084  13.6645  14.2495  18.4802  24.9841  27.6815
    35.1557

          k = 0.4062-0.2812 0.9688 (   387 PWs)   bands (ev):

    11.3578  11.5389  12.3539  13.8005  14.4366  20.1920  23.5150  26.8850
    33.8546

          k = 0.3438-0.2188 0.9062 (   387 PWs)   bands (ev):

    11.1015  11.3958  12.6778  13.9171  14.6362  20.9920  22.6362  27.2768
    32.7917

          k =-0.2812 0.5312 0.2812 (   379 PWs)   bands (ev):

    10.0165  12.3160  12.6406  13.0437  14.6723  15.1648  25.4904  36.9239
    37.6367

          k =-0.3438 0.5938 0.2188 (   381 PWs)   bands (ev):

    10.4008  12.1338  12.5391  13.2079  14.6055  16.0391  24.8721  34.5697
    36.1153

          k = 0.5938-0.3438 1.1562 (   382 PWs)   bands (ev):

    10.8582  11.9271  12.3397  13.4604  14.4946  17.2413  24.4748  31.7392
    34.3327

          k = 0.5312-0.2812 1.0938 (   384 PWs)   bands (ev):

    11.3094  11.7111  12.1324  13.6934  14.4657  18.7122  24.2375  29.0475
    32.7945

          k = 0.4688-0.2188 1.0312 (   386 PWs)   bands (ev):

    11.4262  11.5966  12.1313  13.8292  14.5701  20.4570  23.8241  26.9992
    31.4814

          k = 0.4062-0.1562 0.9688 (   382 PWs)   bands (ev):

    11.1818  11.4889  12.4436  13.9383  14.7171  22.2512  22.6898  26.4218
    30.4105

          k =-0.2812 0.6562 0.2812 (   381 PWs)   bands (ev):

    10.5802  11.9435  12.6214  13.2874  14.7777  16.6522  24.1778  33.7152
    36.0028

          k = 0.6562-0.2812 1.2188 (   382 PWs)   bands (ev):

    10.8499  11.7520  12.5510  13.4953  14.7189  17.7462  23.7170  31.9775
    33.8760

          k = 0.5938-0.2188 1.1562 (   384 PWs)   bands (ev):

    11.1755  11.5928  12.3553  13.7304  14.6458  19.1663  23.4816  30.3056
    31.2447

          k = 0.5312-0.1562 1.0938 (   386 PWs)   bands (ev):

    11.3213  11.6613  12.1147  13.8474  14.6995  20.8535  23.3996  28.2894
    29.4305

          k = 0.4688-0.0938 1.0312 (   387 PWs)   bands (ev):

    11.1911  11.7589  12.1225  13.8914  14.8261  22.7406  23.1652  26.5257
    28.3200

          k =-0.2812-1.2188 0.2812 (   384 PWs)   bands (ev):

    10.9188  11.5875  12.6894  13.6019  14.7472  18.6496  23.1905  30.2352
    34.8383

          k =-0.3438-1.1562 0.2188 (   381 PWs)   bands (ev):

    11.0691  11.4670  12.6343  13.7951  14.6821  19.8940  22.9083  28.6846
    33.0246

          k =-0.4062-1.0938 0.1562 (   384 PWs)   bands (ev):

    11.2087  11.4847  12.4212  13.9040  14.7056  21.3727  22.8701  27.4153
    30.5220

          k =-0.2812-1.0938 0.2812 (   386 PWs)   bands (ev):

    11.0465  11.3801  12.7836  13.9130  14.6098  20.8607  22.5512  27.2288
    34.1790

          k =-0.3438-1.0312 0.2188 (   385 PWs)   bands (ev):

    11.1055  11.3685  12.7040  13.9912  14.6002  21.8947  22.3883  26.3283
    32.6754

          k =-0.2812-0.9688 0.2812 (   384 PWs)   bands (ev):

    11.0586  11.3448  12.8095  14.0120  14.5470  21.7697  22.2833  26.2961
    34.0461

          k =-0.3438 0.3438 0.3438 (   383 PWs)   bands (ev):

     9.4268  12.8073  12.8073  12.8180  14.3863  14.3863  26.0546  39.1214
    41.7769

          k =-0.4062 0.4062 0.2812 (   381 PWs)   bands (ev):

     9.7286  12.7317  12.8304  12.8831  14.3264  14.8545  25.2338  37.5256
    40.5456

          k =-0.4688 0.4688 0.2188 (   385 PWs)   bands (ev):

    10.1747  12.5424  12.6998  12.9703  14.2816  15.7445  24.6337  34.5352
    40.1869

          k = 0.4688-0.4688 1.1562 (   381 PWs)   bands (ev):

    10.6944  12.2430  12.4711  13.2066  14.2646  16.9294  24.2323  31.5381
    39.0315

          k = 0.4062-0.4062 1.0938 (   386 PWs)   bands (ev):

    11.1507  11.8907  12.3236  13.5010  14.2900  18.3780  23.9470  28.8285
    37.1248

          k = 0.3438-0.3438 1.0312 (   383 PWs)   bands (ev):

    11.2800  11.5718  12.4434  13.7922  14.3799  20.0971  23.4110  26.8468
    35.4397

          k =-0.3438 0.4688 0.3438 (   377 PWs)   bands (ev):

     9.8651  12.6786  12.8211  13.0983  14.6346  14.8249  24.3664  38.2151
    39.6466

          k =-0.4062 0.5312 0.2812 (   379 PWs)   bands (ev):

    10.1593  12.5273  12.8878  12.9904  14.5596  15.6995  23.7213  36.1039
    38.5843

          k = 0.5312-0.4062 1.2188 (   383 PWs)   bands (ev):

    10.5714  12.2608  12.6988  13.1262  14.4858  16.9262  23.2797  33.2122
    36.9988

          k = 0.4688-0.3438 1.1562 (   383 PWs)   bands (ev):

    11.0168  11.9190  12.4634  13.4022  14.4617  18.3997  23.0051  30.4074
    35.4197

          k = 0.4062-0.2812 1.0938 (   388 PWs)   bands (ev):

    11.2818  11.5843  12.4082  13.7103  14.4985  20.1082  22.7838  27.9617
    33.9565

          k =-0.3438 0.5938 0.3438 (   381 PWs)   bands (ev):

    10.2985  12.3981  12.9655  12.9675  14.7546  16.1682  23.0441  36.0754
    37.9167

          k = 0.5938-0.3438 1.2812 (   385 PWs)   bands (ev):

    10.5776  12.1784  12.7913  13.1344  14.6974  17.2330  22.5858  34.3031
    35.6555

          k = 0.5312-0.2812 1.2188 (   382 PWs)   bands (ev):

    10.9569  11.8876  12.5438  13.3813  14.6219  18.6137  22.3352  32.0943
    33.3937

          k = 0.4688-0.2188 1.1562 (   385 PWs)   bands (ev):

    11.3266  11.5770  12.3282  13.6560  14.6197  20.1640  22.3095  29.5987
    31.7996

          k =-0.3438-1.2812 0.3438 (   381 PWs)   bands (ev):

    10.7143  12.0267  12.7664  13.2199  14.7260  17.9875  22.1487  32.7223
    36.6258

          k =-0.4062-1.2188 0.2812 (   382 PWs)   bands (ev):

    10.9722  11.8195  12.5950  13.4195  14.6508  19.0658  21.9994  31.0676
    34.4773

          k =-0.3438-1.1562 0.3438 (   386 PWs)   bands (ev):

    11.0762  11.7163  12.5708  13.5368  14.5656  19.6406  22.1055  29.3773
    35.7965

          k =-0.4062 0.4062 0.4062 (   386 PWs)   bands (ev):

     9.8626  12.7231  12.7231  13.7935  14.5967  14.5967  23.4966  38.6270
    41.5355

          k =-0.4688 0.4688 0.3438 (   384 PWs)   bands (ev):

    10.0319  12.6431  12.7573  13.6320  14.5655  15.3603  22.8582  37.4648
    40.1331

          k = 0.4688-0.4688 1.2812 (   383 PWs)   bands (ev):

    10.3518  12.4308  12.9187  13.1673  14.5469  16.6123  22.4238  34.8060
    39.6374

          k = 0.4062-0.4062 1.2188 (   382 PWs)   bands (ev):

    10.7557  12.1019  12.7602  13.1891  14.5458  18.0658  22.1712  31.9851
    37.6464

          k =-0.4062 0.5312 0.4062 (   385 PWs)   bands (ev):

    10.0723  12.6097  12.7541  13.7610  14.7338  15.5145  22.2574  37.8201
    39.9132

          k = 0.5312-0.4062 1.3438 (   382 PWs)   bands (ev):

    10.2806  12.4612  12.8628  13.3833  14.6884  16.5370  21.8913  36.2151
    37.9867

          k = 0.4688-0.3438 1.2812 (   383 PWs)   bands (ev):

    10.6181  12.1842  12.9229  13.0939  14.6513  17.8137  21.7660  33.6961
    36.1033

          k =-0.4062-1.3438 0.4062 (   385 PWs)   bands (ev):

    10.3740  12.3821  12.9184  13.2589  14.7138  16.9958  21.6610  35.3362
    38.5829

          k =-0.4688 0.4688 0.4688 (   386 PWs)   bands (ev):

    10.0015  12.6734  12.6734  14.7186  14.7186  14.7920  21.7812  38.3591
    41.4074

          k = 0.4688-0.4688 1.4062 (   384 PWs)   bands (ev):

    10.1090  12.5975  12.7300  13.9679  14.7114  15.8663  21.5770  37.5675
    40.1458

 ------ SPIN DOWN ----------


          k =-0.0312 0.0312 0.0312 (   363 PWs)   bands (ev):

     5.8214  13.3275  13.3504  13.3504  14.5808  14.5808  39.7702  43.6430
    44.2258

          k =-0.0938 0.0938-0.0312 (   369 PWs)   bands (ev):

     6.0377  13.2582  13.3988  13.4106  14.5296  14.5876  39.2337  41.8239
    43.2869

          k =-0.1562 0.1562-0.0938 (   370 PWs)   bands (ev):

     6.5662  13.1165  13.5046  13.5105  14.4704  14.5904  36.8391  40.5274
    42.7925

          k =-0.2188 0.2188-0.1562 (   370 PWs)   bands (ev):

     7.3693  12.9552  13.5768  13.5902  14.4818  14.6590  33.5517  39.9664
    42.3015

          k =-0.2812 0.2812-0.2188 (   374 PWs)   bands (ev):

     8.3630  12.8688  13.5496  13.5710  14.6418  14.8436  30.2966  39.4347
    41.7178

          k =-0.3438 0.3438-0.2812 (   380 PWs)   bands (ev):

     9.3633  13.0219  13.4544  13.4744  14.9056  15.1037  27.2629  38.9154
    41.1793

          k =-0.4062 0.4062-0.3438 (   380 PWs)   bands (ev):

    10.0757  13.3469  13.3712  13.6128  15.1741  15.3702  24.5917  38.4769
    40.8511

          k =-0.4688 0.4688-0.4062 (   384 PWs)   bands (ev):

    10.3863  13.2718  13.3028  14.4253  15.3717  15.6235  22.5865  38.1998
    40.8189

          k = 0.4688-0.4688 0.5312 (   384 PWs)   bands (ev):

    10.4459  13.2480  13.2879  14.6969  15.4503  15.7361  21.9621  38.1447
    41.1097

          k = 0.4062-0.4062 0.4688 (   382 PWs)   bands (ev):

    10.3189  13.2827  13.3290  14.1677  15.3935  15.4717  23.1463  38.3338
    40.8079

          k = 0.3438-0.3438 0.4062 (   377 PWs)   bands (ev):

     9.8853  13.3398  13.3905  13.4145  15.1575  15.2199  25.4287  38.7461
    40.7802

          k = 0.2812-0.2812 0.3438 (   376 PWs)   bands (ev):

     9.0463  12.9275  13.4839  13.5167  14.8482  14.9809  28.2417  39.3121
    40.9868

          k = 0.2188-0.2188 0.2812 (   376 PWs)   bands (ev):

     8.0190  12.8786  13.5728  13.5871  14.5892  14.7546  31.3627  39.9142
    41.3885

          k = 0.1562-0.1562 0.2188 (   370 PWs)   bands (ev):

     7.0749  13.0037  13.5668  13.5712  14.4652  14.6216  34.6611  40.4344
    41.9585

          k = 0.0938-0.0938 0.1562 (   371 PWs)   bands (ev):

     6.3570  13.1657  13.4709  13.4770  14.4804  14.5917  37.8429  40.9933
    42.6749

          k = 0.0312-0.0312 0.0938 (   367 PWs)   bands (ev):

     5.9299  13.2860  13.3806  13.3828  14.5405  14.5968  39.5728  42.7614
    43.4861

          k =-0.0312 0.1562 0.0312 (   369 PWs)   bands (ev):

     6.1451  13.2002  13.4453  13.4471  14.4626  14.6282  39.2188  41.7481
    42.3963

          k =-0.0938 0.2188-0.0312 (   372 PWs)   bands (ev):

     6.5674  13.0662  13.5459  13.5491  14.3648  14.6653  37.9285  39.7596
    41.8606

          k =-0.1562 0.2812-0.0938 (   372 PWs)   bands (ev):

     7.2768  12.9005  13.6133  13.6597  14.3343  14.7401  34.8193  38.8694
    41.3015

          k =-0.2188 0.3438-0.1562 (   375 PWs)   bands (ev):

     8.2091  12.7674  13.5579  13.6838  14.4986  14.9112  31.5164  38.3003
    40.6625

          k =-0.2812 0.4062-0.2188 (   377 PWs)   bands (ev):

     9.2229  12.7816  13.4199  13.6158  14.8243  15.1727  28.3861  37.8713
    40.0164

          k =-0.3438 0.4688-0.2812 (   378 PWs)   bands (ev):

    10.0488  13.0814  13.3111  13.5158  15.1756  15.5229  25.5537  37.5688
    39.4854

          k =-0.4062 0.5312-0.3438 (   381 PWs)   bands (ev):

    10.4712  13.1449  13.4277  13.7480  15.3887  16.0682  23.2291  37.3402
    39.2030

          k = 0.5312-0.4062 0.5938 (   383 PWs)   bands (ev):

    10.5936  13.1131  13.3855  14.1089  15.4375  16.5616  21.9926  37.1207
    39.2199

          k = 0.4688-0.3438 0.5312 (   383 PWs)   bands (ev):

    10.5377  13.1432  13.3980  13.9372  15.3441  16.3231  22.6519  36.9371
    39.4736

          k = 0.4062-0.2812 0.4688 (   378 PWs)   bands (ev):

    10.2382  13.2119  13.3711  13.4694  15.1193  15.7947  24.7102  36.8797
    39.9744

          k = 0.3438-0.2188 0.4062 (   378 PWs)   bands (ev):

     9.5386  12.8740  13.3799  13.5688  14.8096  15.3864  27.4068  37.0056
    40.7317

          k = 0.2812-0.1562 0.3438 (   378 PWs)   bands (ev):

     8.5504  12.7687  13.5120  13.6674  14.5087  15.0572  30.4513  37.3239
    41.6407

          k = 0.2188-0.0938 0.2812 (   373 PWs)   bands (ev):

     7.5681  12.8686  13.5877  13.6806  14.3396  14.8097  33.7092  37.8293
    42.4353

          k = 0.1562-0.0312 0.2188 (   372 PWs)   bands (ev):

     6.7740  13.0340  13.5595  13.5711  14.3638  14.6734  36.9311  38.6333
    42.7222

          k = 0.0938 0.0312 0.1562 (   371 PWs)   bands (ev):

     6.2515  13.1830  13.4550  13.4666  14.4649  14.6144  38.6535  40.7914
    42.6818

          k =-0.0312 0.2812 0.0312 (   371 PWs)   bands (ev):

     6.8775  12.9211  13.6651  13.6683  14.2224  14.7324  38.1682  39.7783
    39.9377

          k =-0.0938 0.3438-0.0312 (   369 PWs)   bands (ev):

     7.4756  12.7425  13.7307  13.8207  14.1692  14.8123  36.2552  37.7412
    40.1238

          k =-0.1562 0.4062-0.0938 (   375 PWs)   bands (ev):

     8.3117  12.5763  13.5876  13.8999  14.4133  14.9675  32.9463  37.0006
    39.3559

          k =-0.2188 0.4688-0.1562 (   379 PWs)   bands (ev):

     9.2785  12.4891  13.3746  13.8709  14.8438  15.2265  29.7339  36.4994
    38.4096

          k =-0.2812 0.5312-0.2188 (   384 PWs)   bands (ev):

    10.1600  12.5713  13.2087  13.7832  15.2449  15.7022  26.7605  36.1631
    37.4703

          k =-0.3438 0.5938-0.2812 (   381 PWs)   bands (ev):

    10.6933  12.7517  13.2584  13.6884  15.4254  16.5513  24.1643  35.6840
    37.0181

          k = 0.5938-0.3438 0.6562 (   384 PWs)   bands (ev):

    10.8883  12.7891  13.5214  13.6205  15.4443  17.4959  22.3354  34.9568
    37.2918

          k = 0.5312-0.2812 0.5938 (   383 PWs)   bands (ev):

    10.8992  12.8347  13.5369  13.5987  15.3214  17.5563  22.3492  34.3355
    37.9860

          k = 0.4688-0.2188 0.5312 (   383 PWs)   bands (ev):

    10.7241  12.9270  13.2098  13.6361  15.0774  16.7671  24.1954  33.9572
    38.9387

          k = 0.4062-0.1562 0.4688 (   383 PWs)   bands (ev):

    10.1971  12.7424  13.1638  13.7237  14.7504  16.0650  26.7956  33.8543
    40.0879

          k = 0.3438-0.0938 0.4062 (   380 PWs)   bands (ev):

     9.3017  12.6191  13.3483  13.8423  14.4063  15.5436  29.7644  34.0242
    41.4446

          k = 0.2812-0.0312 0.3438 (   377 PWs)   bands (ev):

     8.3196  12.7002  13.5122  13.8946  14.1821  15.1337  32.9374  34.4833
    43.0047

          k = 0.2188 0.0312 0.2812 (   373 PWs)   bands (ev):

     7.4754  12.8635  13.5901  13.7228  14.2601  14.8329  34.9341  36.5024
    43.2585

          k = 0.1562 0.0938 0.2188 (   371 PWs)   bands (ev):

     6.8750  13.0265  13.5599  13.5694  14.4040  14.6500  35.8169  39.7451
    42.1941

          k =-0.0312 0.4062 0.0312 (   370 PWs)   bands (ev):

     7.9480  12.5449  13.8569  14.0005  14.0883  14.8789  36.5655  37.5087
    38.3267

          k =-0.0938 0.4688-0.0312 (   374 PWs)   bands (ev):

     8.6499  12.3530  13.6754  14.1853  14.3616  15.0010  34.4856  35.7481
    37.8673

          k =-0.1562 0.5312-0.0938 (   379 PWs)   bands (ev):

     9.4943  12.2116  13.4363  14.2156  14.8601  15.2464  31.2668  35.0935
    36.4949

          k =-0.2188 0.5938-0.1562 (   385 PWs)   bands (ev):

    10.3226  12.1694  13.2316  14.1503  15.2886  15.8277  28.2054  34.5379
    35.3330

          k =-0.2812 0.6562-0.2188 (   383 PWs)   bands (ev):

    10.9209  12.2417  13.1436  14.0521  15.4558  16.9017  25.4157  33.5149
    35.1283

          k = 0.6562-0.2812 0.7188 (   384 PWs)   bands (ev):

    11.2170  12.3291  13.2074  13.9602  15.4638  18.2447  23.1082  32.4620
    35.5353

[...]
    42.6858

          k =-0.2812 0.2812 0.1562 (   375 PWs)   bands (ev):

     8.1156  12.8350  13.5579  13.6386  14.4722  14.8939  31.4421  38.2365
    42.1678

          k =-0.3438 0.3438 0.0938 (   378 PWs)   bands (ev):

     8.8245  12.6822  13.4477  13.8010  14.3360  15.3089  30.6855  34.9174
    42.4898

          k =-0.4062 0.4062 0.0312 (   380 PWs)   bands (ev):

     9.7033  12.5481  13.2363  13.9980  14.2719  15.8571  30.0957  31.7394
    41.7420

          k =-0.4688 0.4688-0.0312 (   381 PWs)   bands (ev):

    10.5877  12.5202  12.9662  14.0115  14.4847  16.5551  28.3484  30.1742
    40.7752

          k = 0.4688-0.4688 0.9062 (   383 PWs)   bands (ev):

    11.1936  12.6198  12.7833  13.9660  14.8206  17.4790  25.6106  30.1532
    38.9712

          k = 0.4062-0.4062 0.8438 (   382 PWs)   bands (ev):

    11.4001  12.4274  13.0609  13.9563  15.1406  18.6519  23.2432  30.5014
    37.4433

          k = 0.3438-0.3438 0.7812 (   384 PWs)   bands (ev):

    11.3754  12.2840  13.2128  13.9922  15.3816  19.2026  22.2874  31.1594
    36.2558

          k = 0.2812-0.2812 0.7188 (   385 PWs)   bands (ev):

    11.1971  12.1960  13.1996  14.0670  15.4988  17.9816  23.8997  32.0959
    35.4585

          k = 0.2188-0.2188 0.6562 (   384 PWs)   bands (ev):

    10.8102  12.1093  13.2124  14.1635  15.4737  16.5978  26.4300  33.2707
    35.0799

          k =-0.2188 0.3438 0.2188 (   376 PWs)   bands (ev):

     8.4561  12.8014  13.5354  13.6195  14.6367  14.9035  30.3715  39.3099
    40.1341

          k =-0.2812 0.4062 0.1562 (   379 PWs)   bands (ev):

     9.0383  12.6775  13.4239  13.7239  14.6193  15.2450  29.5292  36.4429
    40.5754

          k =-0.3438 0.4688 0.0938 (   383 PWs)   bands (ev):

     9.8048  12.5352  13.2102  13.9216  14.5435  15.8180  28.9109  33.1961
    39.6533

          k =-0.4062 0.5312 0.0312 (   384 PWs)   bands (ev):

    10.6385  12.4482  12.9212  14.1204  14.5525  16.5692  28.4187  30.2241
    38.1319

          k = 0.5312-0.4062 0.9688 (   385 PWs)   bands (ev):

    11.3213  12.4930  12.6229  14.1690  14.7727  17.5551  26.7748  28.9056
    36.6651

          k = 0.4688-0.3438 0.9062 (   389 PWs)   bands (ev):

    11.6330  12.2839  12.8059  14.1578  15.0689  18.8429  24.2759  29.0529
    35.3602

          k = 0.4062-0.2812 0.8438 (   383 PWs)   bands (ev):

    11.6354  12.0976  13.0478  14.1845  15.3102  20.0555  22.4663  29.6041
    34.2792

          k = 0.3438-0.2188 0.7812 (   385 PWs)   bands (ev):

    11.4405  12.0355  13.1387  14.2716  15.4415  19.1174  23.5230  30.4534
    33.4931

          k = 0.2812-0.1562 0.7188 (   384 PWs)   bands (ev):

    11.1202  11.9803  13.1965  14.3910  15.4260  17.5297  25.9439  31.5290
    33.0915

          k =-0.2188 0.4688 0.2188 (   379 PWs)   bands (ev):

     9.4666  12.5751  13.3459  13.7648  15.0553  15.1854  28.5931  37.8044
    37.8337

          k =-0.2812 0.5312 0.1562 (   381 PWs)   bands (ev):

    10.0642  12.4319  13.1878  13.9287  15.0170  15.7603  27.8866  34.7856
    37.3630

          k =-0.3438 0.5938 0.0938 (   386 PWs)   bands (ev):

    10.7469  12.3158  12.9370  14.1868  14.9181  16.5978  27.4062  31.7449
    35.7379

          k = 0.5938-0.3438 1.0312 (   387 PWs)   bands (ev):

    11.3779  12.2997  12.6255  14.3854  14.9346  17.6784  27.0010  29.0410
    34.1875

          k = 0.5312-0.2812 0.9688 (   387 PWs)   bands (ev):

    11.7663  12.2843  12.4928  14.3894  15.1373  19.0688  25.4778  27.9837
    32.8367

          k = 0.4688-0.2188 0.9062 (   386 PWs)   bands (ev):

    11.8914  11.9969  12.7696  14.3666  15.3377  20.7029  23.2751  28.2955
    31.7195

          k = 0.4062-0.1562 0.8438 (   385 PWs)   bands (ev):

    11.6687  11.9925  12.9374  14.4419  15.4283  20.5567  23.3738  29.0126
    30.8938

          k = 0.3438-0.0938 0.7812 (   388 PWs)   bands (ev):

    11.3957  11.9630  13.0425  14.6055  15.3713  18.8027  25.7044  29.8031
    30.6097

          k =-0.2188 0.5938 0.2188 (   384 PWs)   bands (ev):

    10.4440  12.2733  13.1911  14.0111  15.4026  15.9532  27.0817  35.0150
    35.8918

          k =-0.2812 0.6562 0.1562 (   383 PWs)   bands (ev):

    10.8863  12.1283  13.1119  14.2275  15.3409  16.7777  26.5170  33.0272
    33.9857

          k = 0.6562-0.2812 1.0938 (   388 PWs)   bands (ev):

    11.3128  12.0634  12.9226  14.4901  15.2471  17.9191  26.1895  30.5512
    32.0370

          k = 0.5938-0.2188 1.0312 (   386 PWs)   bands (ev):

    11.5972  12.1608  12.6898  14.5633  15.3168  19.3620  25.8986  28.1762
    30.5773

          k = 0.5312-0.1562 0.9688 (   387 PWs)   bands (ev):

    11.6835  12.3416  12.5370  14.4867  15.4742  21.1080  24.5458  27.3515
    29.4227

          k = 0.4688-0.0938 0.9062 (   387 PWs)   bands (ev):

    11.6555  12.2613  12.6683  14.4759  15.5430  22.2157  23.3953  27.7043
    28.6706

          k = 0.4062-0.0312 0.8438 (   387 PWs)   bands (ev):

    11.5500  12.1160  12.8299  14.5917  15.4757  20.3796  25.4957  27.7945
    29.0323

          k =-0.2188 0.7188 0.2188 (   386 PWs)   bands (ev):

    11.0497  11.9541  13.3158  14.3275  15.5151  17.3767  25.8539  31.5144
    34.3859

          k = 0.7188-0.2188 1.1562 (   385 PWs)   bands (ev):

    11.2320  11.8565  13.3430  14.5471  15.4729  18.4169  25.4532  29.8778
    32.5431

          k = 0.6562-0.1562 1.0938 (   387 PWs)   bands (ev):

    11.3929  11.8948  13.1942  14.6784  15.4732  19.7858  25.3096  28.4496
    30.0326

          k = 0.5938-0.0938 1.0312 (   389 PWs)   bands (ev):

    11.4922  12.0851  12.9566  14.5934  15.5932  21.4146  25.2068  27.0979
    28.1038

          k = 0.5312-0.0312 0.9688 (   387 PWs)   bands (ev):

    11.5582  12.3468  12.6688  14.4927  15.6560  23.1312  24.0878  26.3844
    27.5497

          k = 0.4688 0.0312 0.9062 (   387 PWs)   bands (ev):

    11.6030  12.3491  12.6167  14.4942  15.5923  22.2174  24.2534  27.0050
    28.1035

          k =-0.2188-1.1562 0.2188 (   383 PWs)   bands (ev):

    11.2083  11.7279  13.6403  14.6535  15.5092  19.2518  24.9499  28.2795
    33.3853

          k =-0.2812-1.0938 0.1562 (   384 PWs)   bands (ev):

    11.2501  11.7138  13.6400  14.7791  15.4961  20.3540  24.7213  27.0342
    31.8880

          k =-0.3438-1.0312 0.0938 (   382 PWs)   bands (ev):

    11.3375  11.8341  13.4041  14.7218  15.5919  21.5058  24.7747  26.3010
    29.6441

          k =-0.4062-0.9688 0.0312 (   386 PWs)   bands (ev):

    11.4573  12.0692  13.0300  14.5872  15.6559  22.2149  25.0366  26.2622
    27.8682

          k =-0.2188-1.0312 0.2188 (   383 PWs)   bands (ev):

    11.1963  11.6416  13.8458  14.8696  15.4432  20.9019  24.3655  26.2199
    32.9452

          k =-0.2812-0.9688 0.1562 (   382 PWs)   bands (ev):

    11.2365  11.6889  13.7156  14.8304  15.4946  21.0563  24.4763  26.2441
    31.7566

          k =-0.3438-0.9062 0.0938 (   384 PWs)   bands (ev):

    11.3612  11.8537  13.3271  14.7121  15.5499  20.7710  25.0010  27.1378
    29.7678

          k =-0.2188-0.9062 0.2188 (   384 PWs)   bands (ev):

    11.2060  11.6689  13.7731  14.7875  15.4744  20.2090  24.6157  26.9953
    33.0927

          k =-0.2812-0.8438 0.1562 (   383 PWs)   bands (ev):

    11.2602  11.7678  13.5054  14.6812  15.4925  19.3916  25.0485  28.3307
    32.1497

          k =-0.2188-0.7812 0.2188 (   385 PWs)   bands (ev):

    11.1702  11.8234  13.4740  14.4946  15.5260  18.2752  25.3597  29.8267
    33.8185

          k =-0.2812 0.2812 0.2812 (   374 PWs)   bands (ev):

     8.6779  12.9037  13.5289  13.5289  14.8144  14.8144  29.2296  39.7295
    42.2445

          k =-0.3438 0.3438 0.2188 (   379 PWs)   bands (ev):

     9.1374  12.8675  13.4609  13.5544  14.7216  15.1762  28.3170  37.8315
    41.3157

          k =-0.4062 0.4062 0.1562 (   382 PWs)   bands (ev):

     9.7950  12.7441  13.2830  13.6844  14.6475  15.7464  27.6316  34.6543
    41.1873

          k =-0.4688 0.4688 0.0938 (   383 PWs)   bands (ev):

    10.5642  12.6163  13.0012  13.8827  14.6251  16.5162  27.1545  31.5441
    40.5759

          k = 0.4688-0.4688 1.0312 (   383 PWs)   bands (ev):

    11.2800  12.5706  12.6596  14.0773  14.7084  17.5129  26.6985  28.8595
    38.8834

          k = 0.4062-0.4062 0.9688 (   386 PWs)   bands (ev):

    11.6897  12.2985  12.7422  14.2055  14.9250  18.7970  25.1341  27.8194
    37.1318

          k = 0.3438-0.3438 0.9062 (   387 PWs)   bands (ev):

    11.7114  12.0257  13.0448  14.2966  15.1952  20.2914  22.9814  28.0940
    35.6610

          k = 0.2812-0.2812 0.8438 (   385 PWs)   bands (ev):

    11.4795  11.9055  13.2906  14.3904  15.4181  20.0542  23.0855  28.8087
    34.5371

          k =-0.2812 0.4062 0.2812 (   379 PWs)   bands (ev):

     9.4496  12.9239  13.4065  13.5362  14.9928  15.1339  27.3315  38.7339
    39.8128

          k =-0.3438 0.4688 0.2188 (   379 PWs)   bands (ev):

     9.9512  12.8386  13.2708  13.6234  14.9699  15.6465  26.5721  36.2125
    39.5546

          k =-0.4062 0.5312 0.1562 (   385 PWs)   bands (ev):

    10.5832  12.6882  13.0350  13.8114  14.9017  16.4674  26.0324  33.1244
    38.2680

          k = 0.5312-0.4062 1.0938 (   385 PWs)   bands (ev):

    11.2401  12.5284  12.7507  14.0503  14.8901  17.5302  25.6745  30.2085
    36.7340

          k = 0.4688-0.3438 1.0312 (   388 PWs)   bands (ev):

    11.7404  12.2645  12.6651  14.2570  14.9863  18.8680  25.2206  27.8605
    35.2742

          k = 0.4062-0.2812 0.9688 (   387 PWs)   bands (ev):

    11.8765  11.9371  12.9081  14.3987  15.1828  20.4938  23.7566  27.0843
    33.9727

          k = 0.3438-0.2188 0.9062 (   387 PWs)   bands (ev):

    11.5683  11.8647  13.2319  14.5299  15.3818  21.2498  22.8851  27.4779
    32.9042

          k =-0.2812 0.5312 0.2812 (   379 PWs)   bands (ev):

    10.2686  12.7566  13.2329  13.6699  15.3736  15.7300  25.7361  36.9824
    37.7479

          k =-0.3438 0.5938 0.2188 (   381 PWs)   bands (ev):

    10.7143  12.5784  13.1169  13.8291  15.3029  16.5502  25.1227  34.6780
    36.2298

          k = 0.5938-0.3438 1.1562 (   382 PWs)   bands (ev):

    11.2300  12.3811  12.9050  14.0738  15.2041  17.6804  24.7244  31.8778
    34.4576

          k = 0.5312-0.2812 1.0938 (   384 PWs)   bands (ev):

    11.7149  12.1927  12.6865  14.2958  15.1984  19.0755  24.4811  29.2107
    32.9285

          k = 0.4688-0.2188 1.0312 (   386 PWs)   bands (ev):

    11.8379  12.1121  12.6854  14.4257  15.3216  20.7514  24.0560  27.1915
    31.6191

          k = 0.4062-0.1562 0.9688 (   382 PWs)   bands (ev):

    11.6102  12.0099  12.9985  14.5384  15.4767  22.4865  22.9247  26.6355
    30.5458

          k =-0.2812 0.6562 0.2812 (   381 PWs)   bands (ev):

    10.9499  12.3879  13.1815  13.9145  15.4919  17.0912  24.4348  33.8370
    36.1057

          k = 0.6562-0.2812 1.2188 (   382 PWs)   bands (ev):

    11.2683  12.1979  13.1057  14.1183  15.4377  18.1287  23.9738  32.1202
    33.9936

          k = 0.5938-0.2188 1.1562 (   384 PWs)   bands (ev):

    11.6180  12.0581  12.9062  14.3421  15.3800  19.4935  23.7325  30.4678
    31.3781

          k = 0.5312-0.1562 1.0938 (   386 PWs)   bands (ev):

    11.7359  12.1871  12.6647  14.4465  15.4538  21.1291  23.6392  28.4678
    29.5806

          k = 0.4688-0.0938 1.0312 (   387 PWs)   bands (ev):

    11.6096  12.3001  12.6750  14.4865  15.5917  22.9720  23.3881  26.7344
    28.4741

          k =-0.2812-1.2188 0.2812 (   384 PWs)   bands (ev):

    11.3731  12.0295  13.2395  14.2295  15.4722  18.9824  23.4486  30.3975
    34.9342

          k =-0.3438-1.1562 0.2188 (   381 PWs)   bands (ev):

    11.5383  11.9203  13.1859  14.4143  15.4178  20.1845  23.1620  28.8652
    33.1381

          k =-0.4062-1.0938 0.1562 (   384 PWs)   bands (ev):

    11.6408  11.9964  12.9739  14.5073  15.4600  21.6258  23.1144  27.6114
    30.6570

          k =-0.2812-1.0938 0.2812 (   386 PWs)   bands (ev):

    11.5244  11.8350  13.3376  14.5314  15.3508  21.1200  22.8015  27.4319
    34.2706

          k =-0.3438-1.0312 0.2188 (   385 PWs)   bands (ev):

    11.5649  11.8507  13.2601  14.5971  15.3544  22.1334  22.6286  26.5485
    32.7874

          k =-0.2812-0.9688 0.2812 (   384 PWs)   bands (ev):

    11.5323  11.8099  13.3656  14.6208  15.2989  22.0097  22.5250  26.5188
    34.1367

          k =-0.3438 0.3438 0.3438 (   383 PWs)   bands (ev):

     9.6173  13.2011  13.4273  13.4273  15.0740  15.0740  26.3002  39.0942
    41.8952

          k =-0.4062 0.4062 0.2812 (   381 PWs)   bands (ev):

     9.9704  13.2418  13.3481  13.4447  15.0180  15.5062  25.4943  37.5820
    40.5909

          k =-0.4688 0.4688 0.2188 (   385 PWs)   bands (ev):

    10.4746  13.0404  13.1884  13.5812  14.9796  16.3085  24.9017  34.6479
    40.2160

          k = 0.4688-0.4688 1.1562 (   381 PWs)   bands (ev):

    11.0560  12.7146  12.9949  13.8144  14.9732  17.4007  24.5003  31.6812
    39.1464

          k = 0.4062-0.4062 1.0938 (   386 PWs)   bands (ev):

    11.5781  12.3355  12.8705  14.1042  15.0152  18.7608  24.2077  28.9984
    37.2355

          k = 0.3438-0.3438 1.0312 (   383 PWs)   bands (ev):

    11.7943  11.9710  12.9971  14.3916  15.1243  20.4012  23.6560  27.0487
    35.5418

          k =-0.3438 0.4688 0.3438 (   377 PWs)   bands (ev):

    10.1557  13.2499  13.4366  13.4671  15.3374  15.4339  24.6473  38.2136
    39.7589

          k =-0.4062 0.5312 0.2812 (   379 PWs)   bands (ev):

    10.5000  13.0551  13.3917  13.5369  15.2580  16.2233  24.0148  36.1865
    38.6697

          k = 0.5312-0.4062 1.2188 (   383 PWs)   bands (ev):

    10.9622  12.7426  13.2017  13.7336  15.1938  17.3606  23.5763  33.3369
    37.1023

          k = 0.4688-0.3438 1.1562 (   383 PWs)   bands (ev):

    11.4580  12.3656  13.0016  14.0107  15.1824  18.7572  23.2949  30.5607
    35.5352

          k = 0.4062-0.2812 1.0938 (   388 PWs)   bands (ev):

    11.7881  11.9915  12.9622  14.3162  15.2362  20.3999  23.0551  28.1452
    34.0743

          k =-0.3438 0.5938 0.3438 (   381 PWs)   bands (ev):

    10.6784  12.8952  13.4464  13.5807  15.4680  16.6059  23.3552  36.1495
    38.0243

          k = 0.5938-0.3438 1.2812 (   385 PWs)   bands (ev):

    10.9956  12.6444  13.3106  13.7459  15.4124  17.6083  22.9045  34.4095
    35.7765

          k = 0.5312-0.2812 1.2188 (   382 PWs)   bands (ev):

    11.4115  12.3307  13.0840  13.9923  15.3447  18.9341  22.6501  32.2307
    33.5231

          k = 0.4688-0.2188 1.1562 (   385 PWs)   bands (ev):

    11.8221  11.9977  12.8814  14.2626  15.3573  20.4379  22.6056  29.7625
    31.9346

          k =-0.3438-1.2812 0.3438 (   381 PWs)   bands (ev):

    11.1591  12.4715  13.3020  13.8369  15.4458  18.3122  22.4791  32.8529
    36.7301

          k =-0.4062-1.2188 0.2812 (   382 PWs)   bands (ev):

    11.4431  12.2488  13.1426  14.0340  15.3754  19.3551  22.3266  31.2167
    34.5941

          k =-0.3438-1.1562 0.3438 (   386 PWs)   bands (ev):

    11.5646  12.1321  13.1229  14.1519  15.2923  19.9208  22.4188  29.5448
    35.8991

          k =-0.4062 0.4062 0.4062 (   386 PWs)   bands (ev):

    10.1912  13.3322  13.3322  13.9740  15.3012  15.3012  23.8074  38.5932
    41.6411

          k =-0.4688 0.4688 0.3438 (   384 PWs)   bands (ev):

    10.3975  13.2346  13.3639  13.9400  15.2724  15.8960  23.1897  37.4987
    40.1931

          k = 0.4688-0.4688 1.2812 (   383 PWs)   bands (ev):

    10.7545  12.9682  13.5260  13.5929  15.2577  17.0235  22.7644  34.9085
    39.6132

          k = 0.4062-0.4062 1.2188 (   382 PWs)   bands (ev):

    11.1978  12.5662  13.2728  13.7998  15.2628  18.4006  22.5073  32.1225
    37.7552

          k =-0.4062 0.5312 0.4062 (   385 PWs)   bands (ev):

    10.4618  13.1944  13.3616  14.1072  15.4469  15.9628  22.6164  37.8192
    40.0185

          k = 0.5312-0.4062 1.3438 (   382 PWs)   bands (ev):

    10.6945  13.0089  13.4701  13.8055  15.4021  16.9017  22.2630  36.2803
    38.0967

          k = 0.4688-0.3438 1.2812 (   383 PWs)   bands (ev):

    11.0583  12.6675  13.4193  13.7039  15.3691  18.1268  22.1310  33.8126
    36.2161

          k =-0.4062-1.3438 0.4062 (   385 PWs)   bands (ev):

    10.8002  12.9078  13.5273  13.7112  15.4302  17.3217  22.0434  35.4258
    38.6895

          k =-0.4688 0.4688 0.4688 (   386 PWs)   bands (ev):

    10.4014  13.2772  13.2772  14.8212  15.4320  15.4320  22.1720  38.3217
    41.5017

          k = 0.4688-0.4688 1.4062 (   384 PWs)   bands (ev):

    10.5208  13.1838  13.3344  14.3368  15.4258  16.2308  21.9774  37.5795
    40.2259

     the Fermi energy is    15.2777 ev

!    total energy              =     -85.72303340 Ry
     Harris-Foulkes estimate   =     -85.72303340 Ry
     estimated scf accuracy    <          1.6E-15 Ry

     The total energy is the sum of the following terms:

     one-electron contribution =       0.29302573 Ry
     hartree contribution      =      14.34459899 Ry
     xc contribution           =     -29.60661377 Ry
     ewald contribution        =     -70.75404435 Ry
     smearing contrib. (-TS)   =       0.00000000 Ry

     total magnetization       =     0.59789 Bohr mag/cell
     absolute magnetization    =     0.66286 Bohr mag/cell

     convergence has been achieved in  12 iterations

     Forces acting on atoms (Ry/au):

     atom    1 type  1   force =     0.00000000    0.00000000    0.00000000

     Total force =     0.000000     Total SCF correction =     0.000000


     entering subroutine stress ...

          total   stress  (Ry/bohr**3)                   (kbar)     P=      -16.36
  -0.00011124  -0.00000000  -0.00000000        -16.36     -0.00     -0.00
   0.00000000  -0.00011124   0.00000000          0.00    -16.36      0.00
  -0.00000000   0.00000000  -0.00011124         -0.00      0.00    -16.36


     Writing output data file Ni.save
 
     init_run     :      6.16s CPU      6.23s WALL (       1 calls)
     electrons    :    194.43s CPU    195.83s WALL (       1 calls)
     forces       :      0.50s CPU      0.50s WALL (       1 calls)
     stress       :      2.14s CPU      2.15s WALL (       1 calls)

     Called by init_run:
     wfcinit      :      5.44s CPU      5.51s WALL (       1 calls)
     potinit      :      0.02s CPU      0.02s WALL (       1 calls)

     Called by electrons:
     c_bands      :    160.10s CPU    161.20s WALL (      12 calls)
     sum_band     :     33.78s CPU     33.96s WALL (      12 calls)
     v_of_rho     :      0.11s CPU      0.09s WALL (      13 calls)
     newd         :      0.36s CPU      0.36s WALL (      13 calls)
     mix_rho      :      0.05s CPU      0.05s WALL (      12 calls)

     Called by c_bands:
     init_us_2    :      2.95s CPU      2.96s WALL (   22032 calls)
     cegterg      :    151.29s CPU    151.73s WALL (    9792 calls)

     Called by *egterg:
     h_psi        :    144.40s CPU    143.94s WALL (   28797 calls)
     s_psi        :      2.10s CPU      1.84s WALL (   28797 calls)
     g_psi        :      0.52s CPU      0.63s WALL (   18189 calls)
     cdiaghg      :      3.90s CPU      4.29s WALL (   27981 calls)

     Called by h_psi:
     add_vuspsi   :      2.11s CPU      1.87s WALL (   28797 calls)

     General routines
     calbec       :      2.70s CPU      2.54s WALL (   40221 calls)
     fft          :      0.17s CPU      0.17s WALL (     221 calls)
     ffts         :      0.00s CPU      0.02s WALL (      50 calls)
     fftw         :    157.34s CPU    156.96s WALL (  507584 calls)
     interpolate  :      0.04s CPU      0.07s WALL (      50 calls)
     davcio       :      0.21s CPU      0.65s WALL (   32640 calls)
 
     Parallel routines
     fft_scatter  :      5.79s CPU      6.23s WALL (  507855 calls)
     EXX routines
 
     PWSCF        :  3m25.04s CPU     3m26.87s WALL

 
   This run was terminated on:  14: 4:23  22Aug2013            

=------------------------------------------------------------------------------=
   JOB DONE.
=------------------------------------------------------------------------------=
