
     Program PWSCF v.5.0.2 starts on 10Dec2013 at 12:22:11 

     This program is part of the open-source Quantum ESPRESSO suite
     for quantum simulation of materials; please cite
         "P. Giannozzi et al., J. Phys.:Condens. Matter 21 395502 (2009);
          URL http://www.quantum-espresso.org", 
     in publications or presentations arising from this work. More details at
     http://www.quantum-espresso.org/quote

     Parallel version (MPI), running on     1 processors
     Waiting for input...
     Reading input from standard input
Warning: card  &SRB ignored
Warning: card   USE_SRB = .FALSE. ignored
Warning: card  / ignored
     Message from routine read_cards :
     DEPRECATED: no units specified in ATOMIC_POSITIONS card
     Message from routine read_cards :
     ATOMIC_POSITIONS: units set to alat

     Current dimensions of program PWSCF are:
     Max number of different atomic species (ntypx) = 10
     Max number of k-points (npk) =  40000
     Max angular momentum in pseudopotentials (lmaxx) =  3
               file NiUS.RRKJ3.UPF: wavefunction(s)  4S renormalized

     Subspace diagonalization in iterative solution of the eigenvalue problem:
     a serial algorithm will be used

 
     G-vector sticks info
     --------------------
     sticks:   dense  smooth     PW     G-vecs:    dense   smooth      PW
     Sum         559     283    109                 8657     3119     701
 
     Generating pointlists ...
     new r_m :   0.2917 (alat units)  1.8901 (a.u.) for type    1

     Title: 
     nickel                                                                     


     bravais-lattice index     =            2
     lattice parameter (alat)  =       6.4800  a.u.
     unit-cell volume          =      68.0244 (a.u.)^3
     number of atoms/cell      =            1
     number of atomic types    =            1
     number of electrons       =        10.00
     number of Kohn-Sham states=            9
     kinetic-energy cutoff     =      48.0000  Ry
     charge density cutoff     =     384.0000  Ry
     convergence threshold     =      1.0E-12
     mixing beta               =       0.7000
     number of iterations used =            8  plain     mixing
     Exchange-correlation      =  SLA  PZ   NOGX NOGC ( 1  1  0  0 0)

     celldm(1)=   6.480000  celldm(2)=   0.000000  celldm(3)=   0.000000
     celldm(4)=   0.000000  celldm(5)=   0.000000  celldm(6)=   0.000000

     crystal axes: (cart. coord. in units of alat)
               a(1) = (  -0.500000   0.000000   0.500000 )  
               a(2) = (   0.000000   0.500000   0.500000 )  
               a(3) = (  -0.500000   0.500000   0.000000 )  

     reciprocal axes: (cart. coord. in units 2 pi/alat)
               b(1) = ( -1.000000 -1.000000  1.000000 )  
               b(2) = (  1.000000  1.000000  1.000000 )  
               b(3) = ( -1.000000  1.000000 -1.000000 )  


     PseudoPot. # 1 for Ni read from file:
     ../pseudo/NiUS.RRKJ3.UPF
     MD5 check sum: 486b5e49e1c71bd4722d0acb33410094
     Pseudo is Ultrasoft + core correction, Zval = 10.0
     Generated by new atomic code, or converted to UPF format
     Using radial grid of 1203 points,  6 beta functions with: 
                l(1) =   0
                l(2) =   0
                l(3) =   1
                l(4) =   1
                l(5) =   2
                l(6) =   2
     Q(r) pseudized with 0 coefficients 


     atomic species   valence    mass     pseudopotential
        Ni            10.00    58.69000     Ni( 1.00)

     Starting magnetic structure 
     atomic species   magnetization
        Ni           0.700

     48 Sym. Ops., with inversion, found



   Cartesian axes

     site n.     atom                  positions (alat units)
         1           Ni  tau(   1) = (   0.0000000   0.0000000   0.0000000  )

     number of k points=   816  Methfessel-Paxton smearing, width (Ry)=  0.0200

     Number of k-points >= 100: set verbosity='high' to print them.

     Dense  grid:     8657 G-vectors     FFT dimensions: (  30,  30,  30)

     Smooth grid:     3119 G-vectors     FFT dimensions: (  24,  24,  24)

     Largest allocated arrays     est. size (Mb)     dimensions
        Kohn-Sham Wavefunctions         0.05 Mb     (     390,    9)
        NL pseudopotentials             0.11 Mb     (     390,   18)
        Each V/rho on FFT grid          0.82 Mb     (   27000,   2)
        Each G-vector array             0.07 Mb     (    8657)
        G-vector shells                 0.00 Mb     (     139)
     Largest temporary arrays     est. size (Mb)     dimensions
        Auxiliary wavefunctions         0.21 Mb     (     390,   36)
        Each subspace H/S matrix        0.02 Mb     (      36,   36)
        Each <psi_i|beta_j> matrix      0.00 Mb     (      18,    9)
        Arrays for rho mixing           3.30 Mb     (   27000,    8)

     Check: negative/imaginary core charge=   -0.000002    0.000000

     Initial potential from superposition of free atoms

     starting charge    9.99966, renormalised to   10.00000
     Starting wfc are    6 randomized atomic wfcs +    3 random wfc

     total cpu time spent up to now is        3.1 secs

     per-process dynamical memory:    55.6 Mb

     Self-consistent Calculation

     iteration #  1     ecut=    48.00 Ry     beta=0.70
     Davidson diagonalization with overlap
     ethr =  1.00E-02,  avg # of iterations =  4.1
 
     Magnetic moment per site:
     atom:    1    charge:    8.4435    magn:    3.1657    constr:    0.0000

     total cpu time spent up to now is       14.2 secs

     total energy              =     -85.34457273 Ry
     Harris-Foulkes estimate   =     -85.36943628 Ry
     estimated scf accuracy    <       0.91900252 Ry

     total magnetization       =     1.86 Bohr mag/cell
     absolute magnetization    =     1.88 Bohr mag/cell

     iteration #  2     ecut=    48.00 Ry     beta=0.70
     Davidson diagonalization with overlap
     ethr =  9.19E-03,  avg # of iterations =  1.9
     Warning: too many iterations in bisection
     Ef =  12.595416 sumk =  10.000000 electrons
 
     Magnetic moment per site:
     atom:    1    charge:    8.6832    magn:    2.3134    constr:    0.0000

     total cpu time spent up to now is       22.2 secs

     total energy              =     -85.52689062 Ry
     Harris-Foulkes estimate   =     -85.84530972 Ry
     estimated scf accuracy    <       0.95606504 Ry

     total magnetization       =     0.65 Bohr mag/cell
     absolute magnetization    =     0.77 Bohr mag/cell

     iteration #  3     ecut=    48.00 Ry     beta=0.70
     Davidson diagonalization with overlap
     ethr =  9.19E-03,  avg # of iterations =  1.0
 
     Magnetic moment per site:
     atom:    1    charge:    8.6768    magn:    0.7830    constr:    0.0000

     total cpu time spent up to now is       29.4 secs

     total energy              =     -85.71185437 Ry
     Harris-Foulkes estimate   =     -85.68309827 Ry
     estimated scf accuracy    <       0.04426157 Ry

     total magnetization       =     0.98 Bohr mag/cell
     absolute magnetization    =     1.09 Bohr mag/cell

     iteration #  4     ecut=    48.00 Ry     beta=0.70
     Davidson diagonalization with overlap
     ethr =  4.43E-04,  avg # of iterations =  1.0
 
     Magnetic moment per site:
     atom:    1    charge:    8.6843    magn:    0.6782    constr:    0.0000

     total cpu time spent up to now is       36.6 secs

     total energy              =     -85.72261005 Ry
     Harris-Foulkes estimate   =     -85.72219647 Ry
     estimated scf accuracy    <       0.00085991 Ry

     total magnetization       =     0.64 Bohr mag/cell
     absolute magnetization    =     0.75 Bohr mag/cell

     iteration #  5     ecut=    48.00 Ry     beta=0.70
     Davidson diagonalization with overlap
     ethr =  8.60E-06,  avg # of iterations =  2.3
     Warning: too many iterations in bisection
     Ef =  15.318107 sumk =  10.000000 electrons
 
     Magnetic moment per site:
     atom:    1    charge:    8.6900    magn:    0.6182    constr:    0.0000

     total cpu time spent up to now is       44.7 secs

     total energy              =     -85.72291609 Ry
     Harris-Foulkes estimate   =     -85.72279028 Ry
     estimated scf accuracy    <       0.00020571 Ry

     total magnetization       =     0.61 Bohr mag/cell
     absolute magnetization    =     0.71 Bohr mag/cell

     iteration #  6     ecut=    48.00 Ry     beta=0.70
     Davidson diagonalization with overlap
     ethr =  2.06E-06,  avg # of iterations =  1.7
     Warning: too many iterations in bisection
     Ef =  15.260558 sumk =  10.000000 electrons
 
     Magnetic moment per site:
     atom:    1    charge:    8.6909    magn:    0.6287    constr:    0.0000

     total cpu time spent up to now is       52.7 secs

     total energy              =     -85.72302878 Ry
     Harris-Foulkes estimate   =     -85.72303392 Ry
     estimated scf accuracy    <       0.00001728 Ry

     total magnetization       =     0.60 Bohr mag/cell
     absolute magnetization    =     0.66 Bohr mag/cell

     iteration #  7     ecut=    48.00 Ry     beta=0.70
     Davidson diagonalization with overlap
     ethr =  1.73E-07,  avg # of iterations =  1.3
     Warning: too many iterations in bisection
     Ef =  15.280393 sumk =  10.000000 electrons
 
     Magnetic moment per site:
     atom:    1    charge:    8.6910    magn:    0.6249    constr:    0.0000

     total cpu time spent up to now is       60.2 secs

     total energy              =     -85.72303296 Ry
     Harris-Foulkes estimate   =     -85.72303297 Ry
     estimated scf accuracy    <       0.00000039 Ry

     total magnetization       =     0.60 Bohr mag/cell
     absolute magnetization    =     0.66 Bohr mag/cell

     iteration #  8     ecut=    48.00 Ry     beta=0.70
     Davidson diagonalization with overlap
     ethr =  3.86E-09,  avg # of iterations =  2.3
     Warning: too many iterations in bisection
     Ef =  15.276567 sumk =  10.000000 electrons
 
     Magnetic moment per site:
     atom:    1    charge:    8.6909    magn:    0.6265    constr:    0.0000

     total cpu time spent up to now is       68.9 secs

     total energy              =     -85.72303338 Ry
     Harris-Foulkes estimate   =     -85.72303336 Ry
     estimated scf accuracy    <       0.00000007 Ry

     total magnetization       =     0.60 Bohr mag/cell
     absolute magnetization    =     0.66 Bohr mag/cell

     iteration #  9     ecut=    48.00 Ry     beta=0.70
     Davidson diagonalization with overlap
     ethr =  7.05E-10,  avg # of iterations =  1.1
 
     Magnetic moment per site:
     atom:    1    charge:    8.6909    magn:    0.6266    constr:    0.0000

     total cpu time spent up to now is       76.1 secs

     total energy              =     -85.72303340 Ry
     Harris-Foulkes estimate   =     -85.72303340 Ry
     estimated scf accuracy    <          4.1E-11 Ry

     total magnetization       =     0.60 Bohr mag/cell
     absolute magnetization    =     0.66 Bohr mag/cell

     iteration # 10     ecut=    48.00 Ry     beta=0.70
     Davidson diagonalization with overlap
     ethr =  4.07E-13,  avg # of iterations =  2.9
     Warning: too many iterations in bisection
     Ef =  15.277699 sumk =  10.000000 electrons
 
     Magnetic moment per site:
     atom:    1    charge:    8.6909    magn:    0.6265    constr:    0.0000

     total cpu time spent up to now is       85.7 secs

     total energy              =     -85.72303340 Ry
     Harris-Foulkes estimate   =     -85.72303340 Ry
     estimated scf accuracy    <          7.8E-11 Ry

     total magnetization       =     0.60 Bohr mag/cell
     absolute magnetization    =     0.66 Bohr mag/cell

     iteration # 11     ecut=    48.00 Ry     beta=0.70
     Davidson diagonalization with overlap
     ethr =  4.07E-13,  avg # of iterations =  1.5
 
     Magnetic moment per site:
     atom:    1    charge:    8.6909    magn:    0.6265    constr:    0.0000

     total cpu time spent up to now is       93.6 secs

     total energy              =     -85.72303340 Ry
     Harris-Foulkes estimate   =     -85.72303340 Ry
     estimated scf accuracy    <          6.4E-12 Ry

     total magnetization       =     0.60 Bohr mag/cell
     absolute magnetization    =     0.66 Bohr mag/cell

     iteration # 12     ecut=    48.00 Ry     beta=0.70
     Davidson diagonalization with overlap
     ethr =  1.00E-13,  avg # of iterations =  1.0
 
     Magnetic moment per site:
     atom:    1    charge:    8.6909    magn:    0.6265    constr:    0.0000

     total cpu time spent up to now is      100.8 secs

     End of self-consistent calculation

     Number of k-points >= 100: set verbosity='high' to print the bands.

     the Fermi energy is    15.2777 ev

!    total energy              =     -85.72303340 Ry
     Harris-Foulkes estimate   =     -85.72303340 Ry
     estimated scf accuracy    <          1.6E-15 Ry

     The total energy is the sum of the following terms:

     one-electron contribution =       0.29330809 Ry
     hartree contribution      =      14.34459899 Ry
     xc contribution           =     -29.60661377 Ry
     ewald contribution        =     -70.75404435 Ry
     smearing contrib. (-TS)   =      -0.00028236 Ry

     total magnetization       =     0.60 Bohr mag/cell
     absolute magnetization    =     0.66 Bohr mag/cell

     convergence has been achieved in  12 iterations

     Forces acting on atoms (Ry/au):

     atom    1 type  1   force =     0.00000000    0.00000000    0.00000000

     Total force =     0.000000     Total SCF correction =     0.000000


     entering subroutine stress ...

          total   stress  (Ry/bohr**3)                   (kbar)     P=  -16.36
  -0.00011124  -0.00000000  -0.00000000        -16.36     -0.00     -0.00
  -0.00000000  -0.00011124   0.00000000         -0.00    -16.36      0.00
  -0.00000000   0.00000000  -0.00011124         -0.00      0.00    -16.36


     Writing output data file Ni.save
 
     init_run     :      3.04s CPU      3.08s WALL (       1 calls)
     electrons    :     96.87s CPU     97.65s WALL (       1 calls)
     forces       :      0.31s CPU      0.31s WALL (       1 calls)
     stress       :      1.29s CPU      1.30s WALL (       1 calls)

     Called by init_run:
     wfcinit      :      2.60s CPU      2.63s WALL (       1 calls)
     potinit      :      0.01s CPU      0.01s WALL (       1 calls)

     Called by electrons:
     c_bands      :     78.72s CPU     79.37s WALL (      12 calls)
     sum_band     :     17.82s CPU     17.94s WALL (      12 calls)
     v_of_rho     :      0.06s CPU      0.06s WALL (      13 calls)
     newd         :      0.23s CPU      0.24s WALL (      13 calls)
     mix_rho      :      0.03s CPU      0.03s WALL (      12 calls)

     Called by c_bands:
     init_us_2    :      1.89s CPU      1.84s WALL (   22032 calls)
     cegterg      :     72.54s CPU     73.24s WALL (    9792 calls)

     Called by *egterg:
     h_psi        :     67.10s CPU     67.53s WALL (   28796 calls)
     s_psi        :      1.05s CPU      1.07s WALL (   28796 calls)
     g_psi        :      0.44s CPU      0.47s WALL (   18188 calls)
     cdiaghg      :      2.91s CPU      3.03s WALL (   27980 calls)

     Called by h_psi:
     add_vuspsi   :      1.01s CPU      1.05s WALL (   28796 calls)

     General routines
     calbec       :      1.71s CPU      1.69s WALL (   40220 calls)
     fft          :      0.09s CPU      0.10s WALL (     221 calls)
     ffts         :      0.01s CPU      0.01s WALL (      50 calls)
     fftw         :     69.68s CPU     70.09s WALL (  507564 calls)
     interpolate  :      0.03s CPU      0.04s WALL (      50 calls)
 
     Parallel routines
     fft_scatter  :      4.63s CPU      4.79s WALL (  507835 calls)
 
     PWSCF        :  1m42.95s CPU     1m44.03s WALL

 
   This run was terminated on:  12:23:55  10Dec2013            

=------------------------------------------------------------------------------=
   JOB DONE.
=------------------------------------------------------------------------------=
