
     Program PWSCF v.5.0.2 starts on 10Dec2013 at 12:23:55 

     This program is part of the open-source Quantum ESPRESSO suite
     for quantum simulation of materials; please cite
         "P. Giannozzi et al., J. Phys.:Condens. Matter 21 395502 (2009);
          URL http://www.quantum-espresso.org", 
     in publications or presentations arising from this work. More details at
     http://www.quantum-espresso.org/quote

     Parallel version (MPI), running on     1 processors
     Waiting for input...
     Reading input from standard input
Warning: card  &SRB ignored
Warning: card   USE_SRB = .FALSE. ignored
Warning: card  / ignored
     Message from routine read_cards :
     DEPRECATED: no units specified in ATOMIC_POSITIONS card
     Message from routine read_cards :
     ATOMIC_POSITIONS: units set to alat

     Current dimensions of program PWSCF are:
     Max number of different atomic species (ntypx) = 10
     Max number of k-points (npk) =  40000
     Max angular momentum in pseudopotentials (lmaxx) =  3

     Atomic positions and unit cell read from directory:
     ./ref/Ni.save/
 
               file NiUS.RRKJ3.UPF: wavefunction(s)  4S renormalized

     Subspace diagonalization in iterative solution of the eigenvalue problem:
     a serial algorithm will be used

 
     G-vector sticks info
     --------------------
     sticks:   dense  smooth     PW     G-vecs:    dense   smooth      PW
     Sum         559     283     91                 8657     3119     609
 
     Generating pointlists ...
     new r_m :   0.2917 (alat units)  1.8901 (a.u.) for type    1


     bravais-lattice index     =            2
     lattice parameter (alat)  =       6.4800  a.u.
     unit-cell volume          =      68.0244 (a.u.)^3
     number of atoms/cell      =            1
     number of atomic types    =            1
     number of electrons       =        10.00
     number of Kohn-Sham states=            9
     kinetic-energy cutoff     =      48.0000  Ry
     charge density cutoff     =     384.0000  Ry
     Exchange-correlation      =  SLA  PZ   NOGX NOGC ( 1  1  0  0 0)

     celldm(1)=   6.480000  celldm(2)=   0.000000  celldm(3)=   0.000000
     celldm(4)=   0.000000  celldm(5)=   0.000000  celldm(6)=   0.000000

     crystal axes: (cart. coord. in units of alat)
               a(1) = (  -0.500000   0.000000   0.500000 )  
               a(2) = (   0.000000   0.500000   0.500000 )  
               a(3) = (  -0.500000   0.500000   0.000000 )  

     reciprocal axes: (cart. coord. in units 2 pi/alat)
               b(1) = ( -1.000000 -1.000000  1.000000 )  
               b(2) = (  1.000000  1.000000  1.000000 )  
               b(3) = ( -1.000000  1.000000 -1.000000 )  


     PseudoPot. # 1 for Ni read from file:
     ../pseudo/NiUS.RRKJ3.UPF
     MD5 check sum: 486b5e49e1c71bd4722d0acb33410094
     Pseudo is Ultrasoft + core correction, Zval = 10.0
     Generated by new atomic code, or converted to UPF format
     Using radial grid of 1203 points,  6 beta functions with: 
                l(1) =   0
                l(2) =   0
                l(3) =   1
                l(4) =   1
                l(5) =   2
                l(6) =   2
     Q(r) pseudized with 0 coefficients 


     atomic species   valence    mass     pseudopotential
        Ni            10.00    58.69000     Ni( 1.00)

     Starting magnetic structure 
     atomic species   magnetization
        Ni           0.700

     No symmetry found



   Cartesian axes

     site n.     atom                  positions (alat units)
         1           Ni  tau(   1) = (   0.0000000   0.0000000   0.0000000  )

     number of k points=   398  Methfessel-Paxton smearing, width (Ry)=  0.0200

     Number of k-points >= 100: set verbosity='high' to print them.

     Dense  grid:     8657 G-vectors     FFT dimensions: (  30,  30,  30)

     Smooth grid:     3119 G-vectors     FFT dimensions: (  24,  24,  24)

     Largest allocated arrays     est. size (Mb)     dimensions
        Kohn-Sham Wavefunctions         0.05 Mb     (     392,    9)
        NL pseudopotentials             0.11 Mb     (     392,   18)
        Each V/rho on FFT grid          0.82 Mb     (   27000,   2)
        Each G-vector array             0.07 Mb     (    8657)
        G-vector shells                 0.00 Mb     (     139)
     Largest temporary arrays     est. size (Mb)     dimensions
        Each subspace H/S matrix        0.00 Mb     (       9,    9)
        Each <psi_i|beta_j> matrix      0.00 Mb     (      18,    9)

     Check: negative/imaginary core charge=   -0.000002    0.000000

     The potential is recalculated from file :
     ./ref/Ni.save/charge-density.dat

     Starting wfc are    6 randomized atomic wfcs +    3 random wfc

     Band Structure Calculation
     CG style diagonalization

     ethr =  1.00E-14,  avg # of iterations = 31.8
     Warning: too many iterations in bisection
     Ef =  15.279206 sumk =  10.000000 electrons

     total cpu time spent up to now is       42.9 secs

     End of band structure calculation

     Number of k-points >= 100: set verbosity='high' to print the bands.

     the Fermi energy is    15.2792 ev

     Writing output data file Ni.save
 
     init_run     :      0.42s CPU      0.43s WALL (       1 calls)
     electrons    :     40.96s CPU     41.60s WALL (       1 calls)

     Called by init_run:
     wfcinit      :      0.00s CPU      0.00s WALL (       1 calls)
     potinit      :      0.01s CPU      0.01s WALL (       1 calls)

     Called by electrons:
     c_bands      :     40.89s CPU     41.53s WALL (       1 calls)
     v_of_rho     :      0.00s CPU      0.01s WALL (       1 calls)
     newd         :      0.02s CPU      0.02s WALL (       1 calls)

     Called by c_bands:
     init_us_2    :      0.03s CPU      0.04s WALL (     398 calls)
     ccgdiagg     :     37.62s CPU     38.25s WALL (    1061 calls)
     wfcrot       :      3.18s CPU      3.20s WALL (    1061 calls)

     Called by *cgdiagg:
     h_psi        :     36.68s CPU     37.29s WALL (  105824 calls)
     s_psi        :      1.38s CPU      1.39s WALL (  210587 calls)
     cdiaghg      :      0.04s CPU      0.03s WALL (    1061 calls)

     Called by h_psi:
     add_vuspsi   :      0.76s CPU      0.78s WALL (  105824 calls)

     General routines
     calbec       :      1.32s CPU      1.32s WALL (  210587 calls)
     fft          :      0.00s CPU      0.01s WALL (       9 calls)
     ffts         :      0.00s CPU      0.00s WALL (       2 calls)
     fftw         :     30.81s CPU     31.33s WALL (  228624 calls)
     interpolate  :      0.00s CPU      0.00s WALL (       2 calls)
 
     Parallel routines
     fft_scatter  :      1.85s CPU      1.88s WALL (  228635 calls)
 
     PWSCF        :    42.89s CPU        43.66s WALL

 
   This run was terminated on:  12:24:38  10Dec2013            

=------------------------------------------------------------------------------=
   JOB DONE.
=------------------------------------------------------------------------------=
