
     Program PWSCF v.5.0        starts on 18Jan2013 at 14: 1: 1 

     This program is part of the open-source Quantum ESPRESSO suite
     for quantum simulation of materials; please cite
         "P. Giannozzi et al., J. Phys.:Condens. Matter 21 395502 (2009);
          URL http://www.quantum-espresso.org", 
     in publications or presentations arising from this work. More details at
     http://www.quantum-espresso.org/quote.php

     Parallel version (MPI), running on     1 processors

     Current dimensions of program PWSCF are:
     Max number of different atomic species (ntypx) = 10
     Max number of k-points (npk) =  40000
     Max angular momentum in pseudopotentials (lmaxx) =  3
     Waiting for input...
     Reading input from standard input

     Atomic positions and unit cell read from directory:
     ./ref/Ni.save/
 

     Subspace diagonalization in iterative solution of the eigenvalue problem:
     a serial algorithm will be used

 kpoint style unhandled: 
 none                                                                           
  
Lattice symmetry yeilds    21 irreducible k-points
Lattice symmetry yeilds     0 irreducible q-points
 
     G-vector sticks info
     --------------------
     sticks:   dense  smooth     PW     G-vecs:    dense   smooth      PW
     Sum         421     283    121                 5601     3119     821
 


     bravais-lattice index     =            2
     lattice parameter (alat)  =       6.4800  a.u.
     unit-cell volume          =      68.0244 (a.u.)^3
     number of atoms/cell      =            1
     number of atomic types    =            1
     number of electrons       =        18.00
     number of Kohn-Sham states=           13
     kinetic-energy cutoff     =      48.0000  Ry
     charge density cutoff     =     288.0000  Ry
     Exchange-correlation      = SLA  PW   PBE  PBE ( 1 4 3 4 0)
     EXX-fraction              =        0.00

     celldm(1)=   6.480000  celldm(2)=   0.000000  celldm(3)=   0.000000
     celldm(4)=   0.000000  celldm(5)=   0.000000  celldm(6)=   0.000000

     crystal axes: (cart. coord. in units of alat)
               a(1) = (  -0.500000   0.000000   0.500000 )  
               a(2) = (   0.000000   0.500000   0.500000 )  
               a(3) = (  -0.500000   0.500000   0.000000 )  

     reciprocal axes: (cart. coord. in units 2 pi/alat)
               b(1) = ( -1.000000 -1.000000  1.000000 )  
               b(2) = (  1.000000  1.000000  1.000000 )  
               b(3) = ( -1.000000  1.000000 -1.000000 )  


     PseudoPot. # 1 for Ni read from file:
     ./pseudo/Ni.pbe-dgp-semicore.UPF
     MD5 check sum: 7279b196013e9dbc2b4d6f57668a523c
     Pseudo is Ultrasoft + core correction, Zval = 18.0
     Generated by new atomic code, or converted to UPF format
     Using radial grid of  939 points,  6 beta functions with: 
                l(1) =   0
                l(2) =   0
                l(3) =   1
                l(4) =   1
                l(5) =   2
                l(6) =   2
     Q(r) pseudized with  8 coefficients,  rinner =    1.200   1.200   1.200
                                                       1.200   1.200

     atomic species   valence    mass     pseudopotential
        Ni            18.00    58.69000     Ni( 1.00)

     Starting magnetic structure 
     atomic species   magnetization
        Ni           0.700

     No symmetry found



   Cartesian axes

     site n.     atom                  positions (alat units)
         1           Ni  tau(   1) = (   0.0000000   0.0000000   0.0000000  )

     number of k points=    42  Methfessel-Paxton smearing, width (Ry)=  0.0200
                       cart. coord. in units 2pi/alat
        k(    1) = (   0.0000000   0.0000000   0.0000000), wk =   0.0476190
        k(    2) = (   0.1000000   0.0000000   0.0000000), wk =   0.0476190
        k(    3) = (   0.2000000   0.0000000   0.0000000), wk =   0.0476190
        k(    4) = (   0.3000000   0.0000000   0.0000000), wk =   0.0476190
        k(    5) = (   0.4000000   0.0000000   0.0000000), wk =   0.0476190
        k(    6) = (   0.5000000   0.0000000   0.0000000), wk =   0.0476190
        k(    7) = (   0.6000000   0.0000000   0.0000000), wk =   0.0476190
        k(    8) = (   0.7000000   0.0000000   0.0000000), wk =   0.0476190
        k(    9) = (   0.8000000   0.0000000   0.0000000), wk =   0.0476190
        k(   10) = (   0.9000000   0.0000000   0.0000000), wk =   0.0476190
        k(   11) = (   1.0000000   0.0000000   0.0000000), wk =   0.0476190
        k(   12) = (   1.1000000   0.0000000   0.0000000), wk =   0.0476190
        k(   13) = (   1.2000000   0.0000000   0.0000000), wk =   0.0476190
        k(   14) = (   1.3000000   0.0000000   0.0000000), wk =   0.0476190
        k(   15) = (   1.4000000   0.0000000   0.0000000), wk =   0.0476190
        k(   16) = (   1.5000000   0.0000000   0.0000000), wk =   0.0476190
        k(   17) = (   1.6000000   0.0000000   0.0000000), wk =   0.0476190
        k(   18) = (   1.7000000   0.0000000   0.0000000), wk =   0.0476190
        k(   19) = (   1.8000000   0.0000000   0.0000000), wk =   0.0476190
        k(   20) = (   1.9000000   0.0000000   0.0000000), wk =   0.0476190
        k(   21) = (   2.0000000   0.0000000   0.0000000), wk =   0.0476190
        k(   22) = (   0.0000000   0.0000000   0.0000000), wk =   0.0476190
        k(   23) = (   0.1000000   0.0000000   0.0000000), wk =   0.0476190
        k(   24) = (   0.2000000   0.0000000   0.0000000), wk =   0.0476190
        k(   25) = (   0.3000000   0.0000000   0.0000000), wk =   0.0476190
        k(   26) = (   0.4000000   0.0000000   0.0000000), wk =   0.0476190
        k(   27) = (   0.5000000   0.0000000   0.0000000), wk =   0.0476190
        k(   28) = (   0.6000000   0.0000000   0.0000000), wk =   0.0476190
        k(   29) = (   0.7000000   0.0000000   0.0000000), wk =   0.0476190
        k(   30) = (   0.8000000   0.0000000   0.0000000), wk =   0.0476190
        k(   31) = (   0.9000000   0.0000000   0.0000000), wk =   0.0476190
        k(   32) = (   1.0000000   0.0000000   0.0000000), wk =   0.0476190
        k(   33) = (   1.1000000   0.0000000   0.0000000), wk =   0.0476190
        k(   34) = (   1.2000000   0.0000000   0.0000000), wk =   0.0476190
        k(   35) = (   1.3000000   0.0000000   0.0000000), wk =   0.0476190
        k(   36) = (   1.4000000   0.0000000   0.0000000), wk =   0.0476190
        k(   37) = (   1.5000000   0.0000000   0.0000000), wk =   0.0476190
        k(   38) = (   1.6000000   0.0000000   0.0000000), wk =   0.0476190
        k(   39) = (   1.7000000   0.0000000   0.0000000), wk =   0.0476190
        k(   40) = (   1.8000000   0.0000000   0.0000000), wk =   0.0476190
        k(   41) = (   1.9000000   0.0000000   0.0000000), wk =   0.0476190
        k(   42) = (   2.0000000   0.0000000   0.0000000), wk =   0.0476190

     Dense  grid:     5601 G-vectors     FFT dimensions: (  25,  25,  25)

     Smooth grid:     3119 G-vectors     FFT dimensions: (  24,  24,  24)

     Largest allocated arrays     est. size (Mb)     dimensions
        Kohn-Sham Wavefunctions         0.08 Mb     (    388,   13)
        NL pseudopotentials             0.11 Mb     (    388,   18)
        Each V/rho on FFT grid          0.48 Mb     (  15625,   2)
        Each G-vector array             0.04 Mb     (   5601)
        G-vector shells                 0.00 Mb     (    104)
     Largest temporary arrays     est. size (Mb)     dimensions
        Each subspace H/S matrix        0.00 Mb     (  13,  13)
        Each <psi_i|beta_j> matrix      0.00 Mb     (     18,   13)

     The potential is recalculated from file :
     ./ref/Ni.save/charge-density.dat

     Starting wfc are   10 randomized atomic wfcs

     total cpu time spent up to now is        1.1 secs

     per-process dynamical memory:    10.5 Mb

     Band Structure Calculation
     CG style diagonalization
     c_bands:  2 eigenvalues not converged
     c_bands:  3 eigenvalues not converged
     c_bands:  2 eigenvalues not converged
     c_bands:  2 eigenvalues not converged
     c_bands:  3 eigenvalues not converged
     c_bands:  4 eigenvalues not converged
     c_bands:  2 eigenvalues not converged
     c_bands:  4 eigenvalues not converged
     c_bands:  3 eigenvalues not converged
     c_bands:  3 eigenvalues not converged
     c_bands:  3 eigenvalues not converged
     c_bands:  2 eigenvalues not converged
     c_bands:  2 eigenvalues not converged
     c_bands:  5 eigenvalues not converged
     c_bands:  3 eigenvalues not converged
     c_bands:  1 eigenvalues not converged
     c_bands:  3 eigenvalues not converged
     c_bands:  3 eigenvalues not converged
     c_bands:  3 eigenvalues not converged
     c_bands:  3 eigenvalues not converged
     c_bands:  2 eigenvalues not converged
     c_bands:  4 eigenvalues not converged
     c_bands:  3 eigenvalues not converged
     c_bands:  5 eigenvalues not converged
     c_bands:  3 eigenvalues not converged
     c_bands:  2 eigenvalues not converged
     c_bands:  5 eigenvalues not converged
     c_bands:  2 eigenvalues not converged
     c_bands:  2 eigenvalues not converged
     c_bands:  1 eigenvalues not converged
     c_bands:  2 eigenvalues not converged
     c_bands:  2 eigenvalues not converged
     c_bands:  3 eigenvalues not converged
     c_bands:  1 eigenvalues not converged
     c_bands:  2 eigenvalues not converged
     c_bands:  4 eigenvalues not converged
     c_bands:  2 eigenvalues not converged

     ethr =  5.56E-15,  avg # of iterations = 88.7

     total cpu time spent up to now is       45.8 secs

     End of band structure calculation

 ------ SPIN UP ------------


          k = 0.0000 0.0000 0.0000     band energies (ev):

   204.4889 248.6562 248.6562 248.6562 274.4814 299.4684 299.4684 299.4684
   305.5298 305.5298 308.7351 312.2263 312.2263

          k = 0.1000 0.0000 0.0000     band energies (ev):

   204.5121 248.6571 248.6583 248.6583 274.6174 298.9412 299.4500 299.4500
   304.5393 305.6212 309.4831 311.9725 312.4885

          k = 0.2000 0.0000 0.0000     band energies (ev):

   204.5062 248.6559 248.6576 248.6576 275.0213 297.7154 299.4139 299.4139
   302.2680 305.8826 311.3618 312.0294 313.2275

          k = 0.3000 0.0000 0.0000     band energies (ev):

   204.5062 248.6561 248.6575 248.6575 275.6810 296.2823 299.4072 299.4072
   299.6512 306.3068 312.5508 313.8534 314.2964

          k = 0.4000 0.0000 0.0000     band energies (ev):

   204.5128 248.6574 248.6580 248.6580 276.5754 294.8903 297.0978 299.4777
   299.4777 306.8718 313.3965 315.4041 315.4041

          k = 0.5000 0.0000 0.0000     band energies (ev):

   204.5028 248.6571 248.6576 248.6576 277.6725 293.6450 294.7493 299.6548
   299.6548 307.5442 314.4673 316.0467 316.0467

          k = 0.6000 0.0000 0.0000     band energies (ev):

   204.4988 248.6574 248.6577 248.6577 278.9274 292.5946 292.6498 299.9425
   299.9425 308.2752 315.6015 315.8083 315.8083

          k = 0.7000 0.0000 0.0000     band energies (ev):

   204.4885 248.6566 248.6570 248.6570 280.2770 290.8047 291.7627 300.3124
   300.3124 308.9953 314.9259 314.9259 315.8202

          k = 0.8000 0.0000 0.0000     band energies (ev):

   204.4941 248.6573 248.6574 248.6574 281.6276 289.2166 291.1621 300.6999
   300.6999 309.6197 313.9239 313.9239 314.4080

          k = 0.9000 0.0000 0.0000     band energies (ev):

   204.4864 248.6568 248.6568 248.6572 282.7977 287.9625 290.7994 301.0055
   301.0055 310.0497 313.1703 313.1703 313.2992

          k = 1.0000 0.0000 0.0000     band energies (ev):

   204.4862 248.6567 248.6567 248.6568 283.3369 287.4065 290.6781 301.1234
   301.1234 310.2041 312.8927 312.8927 312.9071

          k = 1.1000 0.0000 0.0000     band energies (ev):

   204.4864 248.6568 248.6568 248.6572 282.7977 287.9625 290.7994 301.0055
   301.0055 310.0497 313.1703 313.1703 313.2992

          k = 1.2000 0.0000 0.0000     band energies (ev):

   204.4941 248.6573 248.6574 248.6574 281.6276 289.2166 291.1621 300.6999
   300.6999 309.6197 313.9239 313.9239 314.4080

          k = 1.3000 0.0000 0.0000     band energies (ev):

   204.4885 248.6566 248.6570 248.6570 280.2770 290.8047 291.7627 300.3124
   300.3124 308.9953 314.9259 314.9259 315.8202

          k = 1.4000 0.0000 0.0000     band energies (ev):

   204.4988 248.6574 248.6577 248.6577 278.9274 292.5946 292.6498 299.9425
   299.9425 308.2752 315.6015 315.8083 315.8083

          k = 1.5000 0.0000 0.0000     band energies (ev):

   204.5028 248.6571 248.6576 248.6576 277.6725 293.6450 294.7493 299.6548
   299.6548 307.5442 314.4673 316.0467 316.0467

          k = 1.6000 0.0000 0.0000     band energies (ev):

   204.5128 248.6574 248.6580 248.6580 276.5754 294.8903 297.0978 299.4777
   299.4777 306.8718 313.3965 315.4041 315.4041

          k = 1.7000 0.0000 0.0000     band energies (ev):

   204.5062 248.6561 248.6575 248.6575 275.6810 296.2823 299.4072 299.4072
   299.6512 306.3068 312.5508 313.8534 314.2964

          k = 1.8000 0.0000 0.0000     band energies (ev):

   204.5062 248.6559 248.6576 248.6576 275.0213 297.7154 299.4139 299.4139
   302.2680 305.8826 311.3618 312.0294 313.2275

          k = 1.9000 0.0000 0.0000     band energies (ev):

   204.5121 248.6571 248.6583 248.6583 274.6174 298.9412 299.4500 299.4500
   304.5393 305.6212 309.4831 311.9725 312.4885

          k = 2.0000 0.0000 0.0000     band energies (ev):

   204.4889 248.6562 248.6562 248.6562 274.4814 299.4684 299.4684 299.4684
   305.5298 305.5298 308.7351 312.2263 312.2263

 ------ SPIN DOWN ----------


          k = 0.0000 0.0000 0.0000     band energies (ev):

   204.4889 248.6562 248.6562 248.6562 274.4814 299.4684 299.4684 299.4684
   305.5298 305.5298 308.7351 312.2263 312.2263

          k = 0.1000 0.0000 0.0000     band energies (ev):

   204.5121 248.6571 248.6583 248.6583 274.6174 298.9412 299.4500 299.4500
   304.5393 305.6212 309.4831 311.9725 312.4885

          k = 0.2000 0.0000 0.0000     band energies (ev):

   204.5062 248.6559 248.6576 248.6576 275.0213 297.7154 299.4139 299.4139
   302.2680 305.8826 311.3618 312.0294 313.2275

          k = 0.3000 0.0000 0.0000     band energies (ev):

   204.5062 248.6561 248.6575 248.6575 275.6810 296.2823 299.4072 299.4072
   299.6512 306.3068 312.5508 313.8534 314.2964

          k = 0.4000 0.0000 0.0000     band energies (ev):

   204.5128 248.6574 248.6580 248.6580 276.5754 294.8903 297.0978 299.4777
   299.4777 306.8718 313.3965 315.4041 315.4041

          k = 0.5000 0.0000 0.0000     band energies (ev):

   204.5028 248.6571 248.6576 248.6576 277.6725 293.6450 294.7493 299.6548
   299.6548 307.5442 314.4673 316.0467 316.0467

          k = 0.6000 0.0000 0.0000     band energies (ev):

   204.4988 248.6574 248.6577 248.6577 278.9274 292.5946 292.6498 299.9425
   299.9425 308.2752 315.6015 315.8083 315.8083

          k = 0.7000 0.0000 0.0000     band energies (ev):

   204.4885 248.6566 248.6570 248.6570 280.2770 290.8047 291.7627 300.3124
   300.3124 308.9953 314.9259 314.9259 315.8202

          k = 0.8000 0.0000 0.0000     band energies (ev):

   204.4941 248.6573 248.6574 248.6574 281.6276 289.2166 291.1621 300.6999
   300.6999 309.6197 313.9239 313.9239 314.4080

          k = 0.9000 0.0000 0.0000     band energies (ev):

   204.4864 248.6568 248.6568 248.6572 282.7977 287.9625 290.7994 301.0055
   301.0055 310.0497 313.1703 313.1703 313.2992

          k = 1.0000 0.0000 0.0000     band energies (ev):

   204.4862 248.6567 248.6567 248.6568 283.3369 287.4065 290.6781 301.1234
   301.1234 310.2041 312.8927 312.8927 312.9071

          k = 1.1000 0.0000 0.0000     band energies (ev):

   204.4864 248.6568 248.6568 248.6572 282.7977 287.9625 290.7994 301.0055
   301.0055 310.0497 313.1703 313.1703 313.2992

          k = 1.2000 0.0000 0.0000     band energies (ev):

   204.4941 248.6573 248.6574 248.6574 281.6276 289.2166 291.1621 300.6999
   300.6999 309.6197 313.9239 313.9239 314.4080

          k = 1.3000 0.0000 0.0000     band energies (ev):

   204.4885 248.6566 248.6570 248.6570 280.2770 290.8047 291.7627 300.3124
   300.3124 308.9953 314.9259 314.9259 315.8202

          k = 1.4000 0.0000 0.0000     band energies (ev):

   204.4988 248.6574 248.6577 248.6577 278.9274 292.5946 292.6498 299.9425
   299.9425 308.2752 315.6015 315.8083 315.8083

          k = 1.5000 0.0000 0.0000     band energies (ev):

   204.5028 248.6571 248.6576 248.6576 277.6725 293.6450 294.7493 299.6548
   299.6548 307.5442 314.4673 316.0467 316.0467

          k = 1.6000 0.0000 0.0000     band energies (ev):

   204.5128 248.6574 248.6580 248.6580 276.5754 294.8903 297.0978 299.4777
   299.4777 306.8718 313.3965 315.4041 315.4041

          k = 1.7000 0.0000 0.0000     band energies (ev):

   204.5062 248.6561 248.6575 248.6575 275.6810 296.2823 299.4072 299.4072
   299.6512 306.3068 312.5508 313.8534 314.2964

          k = 1.8000 0.0000 0.0000     band energies (ev):

   204.5062 248.6559 248.6576 248.6576 275.0213 297.7154 299.4139 299.4139
   302.2680 305.8826 311.3618 312.0294 313.2275

          k = 1.9000 0.0000 0.0000     band energies (ev):

   204.5121 248.6571 248.6583 248.6583 274.6174 298.9412 299.4500 299.4500
   304.5393 305.6212 309.4831 311.9725 312.4885

          k = 2.0000 0.0000 0.0000     band energies (ev):

   204.4889 248.6562 248.6562 248.6562 274.4814 299.4684 299.4684 299.4684
   305.5298 305.5298 308.7351 312.2263 312.2263

     the Fermi energy is   305.5066 ev

     Writing output data file Ni.save
 
     init_run     :      0.54s CPU      0.60s WALL (       1 calls)
     electrons    :     43.48s CPU     44.72s WALL (       1 calls)

     Called by init_run:
     wfcinit      :      0.00s CPU      0.00s WALL (       1 calls)
     potinit      :      0.03s CPU      0.04s WALL (       1 calls)

     Called by electrons:
     c_bands      :     43.47s CPU     44.71s WALL (       1 calls)
     v_of_rho     :      0.03s CPU      0.03s WALL (       1 calls)
     newd         :      0.03s CPU      0.02s WALL (       1 calls)

     Called by c_bands:
     init_us_2    :      0.00s CPU      0.01s WALL (      42 calls)
     ccgdiagg     :     40.72s CPU     41.91s WALL (     246 calls)
     wfcrot       :      2.73s CPU      2.77s WALL (     246 calls)

     Called by *cgdiagg:
     h_psi        :     39.54s CPU     40.63s WALL (   44476 calls)
     s_psi        :      1.09s CPU      1.00s WALL (   88706 calls)
     cdiaghg      :      0.06s CPU      0.03s WALL (     246 calls)

     Called by h_psi:
     add_vuspsi   :      0.67s CPU      0.81s WALL (   44476 calls)

     General routines
     calbec       :      1.73s CPU      1.72s WALL (   88706 calls)
     fft          :      0.02s CPU      0.01s WALL (      23 calls)
     ffts         :      0.00s CPU      0.00s WALL (       2 calls)
     fftw         :     33.25s CPU     34.02s WALL (   94856 calls)
     interpolate  :      0.00s CPU      0.00s WALL (       2 calls)
     davcio       :      0.02s CPU      0.01s WALL (      84 calls)
 
     Parallel routines
     fft_scatter  :      1.78s CPU      2.19s WALL (   94881 calls)
     EXX routines
 
     PWSCF        :    44.44s CPU        45.95s WALL

 
   This run was terminated on:  14: 1:47  18Jan2013            

=------------------------------------------------------------------------------=
   JOB DONE.
=------------------------------------------------------------------------------=
