
     Program PWSCF v.5.0.2 starts on 31Oct2013 at 11:37:29 

     This program is part of the open-source Quantum ESPRESSO suite
     for quantum simulation of materials; please cite
         "P. Giannozzi et al., J. Phys.:Condens. Matter 21 395502 (2009);
          URL http://www.quantum-espresso.org", 
     in publications or presentations arising from this work. More details at
     http://www.quantum-espresso.org/quote

     Parallel version (MPI), running on     1 processors
     Waiting for input...
     Reading input from standard input
Warning: card  &SHIRLEY ignored
Warning: card   USE_SHIRLEY = .FALSE. ignored
Warning: card  / ignored

     Current dimensions of program PWSCF are:
     Max number of different atomic species (ntypx) = 10
     Max number of k-points (npk) =  40000
     Max angular momentum in pseudopotentials (lmaxx) =  3
               file C.pbe-rrkjus.UPF: wavefunction(s)  2S 2P renormalized

     Subspace diagonalization in iterative solution of the eigenvalue problem:
     a serial algorithm will be used

 
     G-vector sticks info
     --------------------
     sticks:   dense  smooth     PW     G-vecs:    dense   smooth      PW
     Sum        1615     805    253                42255    15065    2685
 


     bravais-lattice index     =            2
     lattice parameter (alat)  =       6.7412  a.u.
     unit-cell volume          =      76.5881 (a.u.)^3
     number of atoms/cell      =            2
     number of atomic types    =            1
     number of electrons       =         8.00
     number of Kohn-Sham states=            8
     kinetic-energy cutoff     =     128.0000  Ry
     charge density cutoff     =    1024.0000  Ry
     convergence threshold     =      1.0E-12
     mixing beta               =       0.3000
     number of iterations used =            8  plain     mixing
     Exchange-correlation      =  SLA  PW   PBE  PBE ( 1  4  3  4 0)

     celldm(1)=   6.741250  celldm(2)=   0.000000  celldm(3)=   0.000000
     celldm(4)=   0.000000  celldm(5)=   0.000000  celldm(6)=   0.000000

     crystal axes: (cart. coord. in units of alat)
               a(1) = (  -0.500000   0.000000   0.500000 )  
               a(2) = (   0.000000   0.500000   0.500000 )  
               a(3) = (  -0.500000   0.500000   0.000000 )  

     reciprocal axes: (cart. coord. in units 2 pi/alat)
               b(1) = ( -1.000000 -1.000000  1.000000 )  
               b(2) = (  1.000000  1.000000  1.000000 )  
               b(3) = ( -1.000000  1.000000 -1.000000 )  


     PseudoPot. # 1 for C  read from file:
     ../pseudo/C.pbe-rrkjus.UPF
     MD5 check sum: 00fb224312de0c5b6853bd333518df6f
     Pseudo is Ultrasoft, Zval =  4.0
     Generated by new atomic code, or converted to UPF format
     Using radial grid of  627 points,  4 beta functions with: 
                l(1) =   0
                l(2) =   0
                l(3) =   1
                l(4) =   1
     Q(r) pseudized with 0 coefficients 


     atomic species   valence    mass     pseudopotential
        C              4.00    12.01000     C ( 1.00)

     24 Sym. Ops. (no inversion) found
          (note: 24 additional sym.ops. were found but ignored
           their fractional translations are incommensurate with FFT grid)


   Cartesian axes

     site n.     atom                  positions (alat units)
         1           C   tau(   1) = (   0.0000000   0.0000000   0.0000000  )
         2           C   tau(   2) = (   0.2500000   0.2500000   0.2500000  )

     number of k points=    60  Fermi-Dirac smearing, width (Ry)=  0.0000
                       cart. coord. in units 2pi/alat
        k(    1) = (  -0.0625000   0.0625000   0.0625000), wk =   0.0078125
        k(    2) = (  -0.1875000   0.1875000  -0.0625000), wk =   0.0234375
        k(    3) = (  -0.3125000   0.3125000  -0.1875000), wk =   0.0234375
        k(    4) = (  -0.4375000   0.4375000  -0.3125000), wk =   0.0234375
        k(    5) = (   0.4375000  -0.4375000   0.5625000), wk =   0.0234375
        k(    6) = (   0.3125000  -0.3125000   0.4375000), wk =   0.0234375
        k(    7) = (   0.1875000  -0.1875000   0.3125000), wk =   0.0234375
        k(    8) = (   0.0625000  -0.0625000   0.1875000), wk =   0.0234375
        k(    9) = (  -0.0625000   0.3125000   0.0625000), wk =   0.0234375
        k(   10) = (  -0.1875000   0.4375000  -0.0625000), wk =   0.0468750
        k(   11) = (  -0.3125000   0.5625000  -0.1875000), wk =   0.0468750
        k(   12) = (   0.5625000  -0.3125000   0.6875000), wk =   0.0468750
        k(   13) = (   0.4375000  -0.1875000   0.5625000), wk =   0.0468750
        k(   14) = (   0.3125000  -0.0625000   0.4375000), wk =   0.0468750
        k(   15) = (   0.1875000   0.0625000   0.3125000), wk =   0.0468750
        k(   16) = (  -0.0625000   0.5625000   0.0625000), wk =   0.0234375
        k(   17) = (  -0.1875000   0.6875000  -0.0625000), wk =   0.0468750
        k(   18) = (   0.6875000  -0.1875000   0.8125000), wk =   0.0468750
        k(   19) = (   0.5625000  -0.0625000   0.6875000), wk =   0.0468750
        k(   20) = (   0.4375000   0.0625000   0.5625000), wk =   0.0468750
        k(   21) = (   0.3125000   0.1875000   0.4375000), wk =   0.0468750
        k(   22) = (  -0.0625000   0.8125000   0.0625000), wk =   0.0234375
        k(   23) = (   0.8125000  -0.0625000   0.9375000), wk =   0.0468750
        k(   24) = (   0.6875000   0.0625000   0.8125000), wk =   0.0468750
        k(   25) = (   0.5625000   0.1875000   0.6875000), wk =   0.0468750
        k(   26) = (   0.4375000   0.3125000   0.5625000), wk =   0.0468750
        k(   27) = (  -0.0625000  -0.9375000   0.0625000), wk =   0.0234375
        k(   28) = (  -0.1875000  -0.8125000  -0.0625000), wk =   0.0468750
        k(   29) = (  -0.3125000  -0.6875000  -0.1875000), wk =   0.0468750
        k(   30) = (  -0.0625000  -0.6875000   0.0625000), wk =   0.0234375
        k(   31) = (  -0.1875000  -0.5625000  -0.0625000), wk =   0.0468750
        k(   32) = (  -0.0625000  -0.4375000   0.0625000), wk =   0.0234375
        k(   33) = (  -0.1875000   0.1875000   0.1875000), wk =   0.0078125
        k(   34) = (  -0.3125000   0.3125000   0.0625000), wk =   0.0234375
        k(   35) = (  -0.4375000   0.4375000  -0.0625000), wk =   0.0234375
        k(   36) = (   0.4375000  -0.4375000   0.8125000), wk =   0.0234375
        k(   37) = (   0.3125000  -0.3125000   0.6875000), wk =   0.0234375
        k(   38) = (   0.1875000  -0.1875000   0.5625000), wk =   0.0234375
        k(   39) = (  -0.1875000   0.4375000   0.1875000), wk =   0.0234375
        k(   40) = (  -0.3125000   0.5625000   0.0625000), wk =   0.0468750
        k(   41) = (   0.5625000  -0.3125000   0.9375000), wk =   0.0468750
        k(   42) = (   0.4375000  -0.1875000   0.8125000), wk =   0.0468750
        k(   43) = (   0.3125000  -0.0625000   0.6875000), wk =   0.0468750
        k(   44) = (  -0.1875000   0.6875000   0.1875000), wk =   0.0234375
        k(   45) = (   0.6875000  -0.1875000   1.0625000), wk =   0.0468750
        k(   46) = (   0.5625000  -0.0625000   0.9375000), wk =   0.0468750
        k(   47) = (   0.4375000   0.0625000   0.8125000), wk =   0.0468750
        k(   48) = (  -0.1875000  -1.0625000   0.1875000), wk =   0.0234375
        k(   49) = (  -0.3125000  -0.9375000   0.0625000), wk =   0.0468750
        k(   50) = (  -0.1875000  -0.8125000   0.1875000), wk =   0.0234375
        k(   51) = (  -0.3125000   0.3125000   0.3125000), wk =   0.0078125
        k(   52) = (  -0.4375000   0.4375000   0.1875000), wk =   0.0234375
        k(   53) = (   0.4375000  -0.4375000   1.0625000), wk =   0.0234375
        k(   54) = (   0.3125000  -0.3125000   0.9375000), wk =   0.0234375
        k(   55) = (  -0.3125000   0.5625000   0.3125000), wk =   0.0234375
        k(   56) = (   0.5625000  -0.3125000   1.1875000), wk =   0.0468750
        k(   57) = (   0.4375000  -0.1875000   1.0625000), wk =   0.0468750
        k(   58) = (  -0.3125000  -1.1875000   0.3125000), wk =   0.0234375
        k(   59) = (  -0.4375000   0.4375000   0.4375000), wk =   0.0078125
        k(   60) = (   0.4375000  -0.4375000   1.3125000), wk =   0.0234375

     Dense  grid:    42255 G-vectors     FFT dimensions: (  50,  50,  50)

     Smooth grid:    15065 G-vectors     FFT dimensions: (  36,  36,  36)

     Largest allocated arrays     est. size (Mb)     dimensions
        Kohn-Sham Wavefunctions         0.23 Mb     (    1887,    8)
        NL pseudopotentials             0.46 Mb     (    1887,   16)
        Each V/rho on FFT grid          1.91 Mb     (  125000)
        Each G-vector array             0.32 Mb     (   42255)
        G-vector shells                 0.00 Mb     (     395)
     Largest temporary arrays     est. size (Mb)     dimensions
        Auxiliary wavefunctions         0.92 Mb     (    1887,   32)
        Each subspace H/S matrix        0.02 Mb     (      32,   32)
        Each <psi_i|beta_j> matrix      0.00 Mb     (      16,    8)
        Arrays for rho mixing          15.26 Mb     (  125000,    8)

     Initial potential from superposition of free atoms

     starting charge    7.99989, renormalised to    8.00000
     Starting wfc are    8 randomized atomic wfcs

     total cpu time spent up to now is        0.9 secs

     per-process dynamical memory:    37.0 Mb

     Self-consistent Calculation

     iteration #  1     ecut=   128.00 Ry     beta=0.30
     Davidson diagonalization with overlap
     ethr =  1.00E-02,  avg # of iterations =  2.9

     total cpu time spent up to now is        3.3 secs

     total energy              =     -22.78548482 Ry
     Harris-Foulkes estimate   =     -22.81603713 Ry
     estimated scf accuracy    <       0.11827474 Ry

     iteration #  2     ecut=   128.00 Ry     beta=0.30
     Davidson diagonalization with overlap
     ethr =  1.48E-03,  avg # of iterations =  1.0

     total cpu time spent up to now is        4.9 secs

     total energy              =     -22.76741593 Ry
     Harris-Foulkes estimate   =     -22.78717216 Ry
     estimated scf accuracy    <       0.04614432 Ry

     iteration #  3     ecut=   128.00 Ry     beta=0.30
     Davidson diagonalization with overlap
     ethr =  5.77E-04,  avg # of iterations =  1.0

     total cpu time spent up to now is        6.6 secs

     total energy              =     -22.77128689 Ry
     Harris-Foulkes estimate   =     -22.77123203 Ry
     estimated scf accuracy    <       0.00035734 Ry

     iteration #  4     ecut=   128.00 Ry     beta=0.30
     Davidson diagonalization with overlap
     ethr =  4.47E-06,  avg # of iterations =  2.4

     total cpu time spent up to now is        8.9 secs

     total energy              =     -22.77137235 Ry
     Harris-Foulkes estimate   =     -22.77137823 Ry
     estimated scf accuracy    <       0.00001335 Ry

     iteration #  5     ecut=   128.00 Ry     beta=0.30
     Davidson diagonalization with overlap
     ethr =  1.67E-07,  avg # of iterations =  1.0

     total cpu time spent up to now is       10.5 secs

     total energy              =     -22.77137546 Ry
     Harris-Foulkes estimate   =     -22.77137330 Ry
     estimated scf accuracy    <       0.00000095 Ry

     iteration #  6     ecut=   128.00 Ry     beta=0.30
     Davidson diagonalization with overlap
     ethr =  1.18E-08,  avg # of iterations =  2.0

     total cpu time spent up to now is       12.4 secs

     total energy              =     -22.77137567 Ry
     Harris-Foulkes estimate   =     -22.77137568 Ry
     estimated scf accuracy    <       0.00000009 Ry

     iteration #  7     ecut=   128.00 Ry     beta=0.30
     Davidson diagonalization with overlap
     ethr =  1.10E-09,  avg # of iterations =  1.0

     total cpu time spent up to now is       14.1 secs

     total energy              =     -22.77137567 Ry
     Harris-Foulkes estimate   =     -22.77137567 Ry
     estimated scf accuracy    <       0.00000002 Ry

     iteration #  8     ecut=   128.00 Ry     beta=0.30
     Davidson diagonalization with overlap
     ethr =  2.31E-10,  avg # of iterations =  1.0

     total cpu time spent up to now is       15.7 secs

     total energy              =     -22.77137568 Ry
     Harris-Foulkes estimate   =     -22.77137568 Ry
     estimated scf accuracy    <          3.8E-10 Ry

     iteration #  9     ecut=   128.00 Ry     beta=0.30
     Davidson diagonalization with overlap
     ethr =  4.78E-12,  avg # of iterations =  2.0

     total cpu time spent up to now is       17.6 secs

     total energy              =     -22.77137568 Ry
     Harris-Foulkes estimate   =     -22.77137568 Ry
     estimated scf accuracy    <          1.9E-11 Ry

     iteration # 10     ecut=   128.00 Ry     beta=0.30
     Davidson diagonalization with overlap
     ethr =  2.33E-13,  avg # of iterations =  2.0

     total cpu time spent up to now is       19.4 secs

     total energy              =     -22.77137568 Ry
     Harris-Foulkes estimate   =     -22.77137568 Ry
     estimated scf accuracy    <          6.9E-12 Ry

     iteration # 11     ecut=   128.00 Ry     beta=0.30
     Davidson diagonalization with overlap
     ethr =  1.00E-13,  avg # of iterations =  1.0

     total cpu time spent up to now is       21.0 secs

     End of self-consistent calculation

          k =-0.0625 0.0625 0.0625 (  1877 PWs)   bands (ev):

    -7.9964  12.5801  13.1201  13.1201  19.1440  19.1440  19.3402  26.7748

          k =-0.1875 0.1875-0.0625 (  1883 PWs)   bands (ev):

    -7.4224  10.2311  11.5392  12.7932  19.6656  20.4953  20.8109  27.1141

          k =-0.3125 0.3125-0.1875 (  1885 PWs)   bands (ev):

    -6.0055   6.0934  10.5266  11.7166  20.9711  21.7741  21.8744  27.8334

          k =-0.4375 0.4375-0.3125 (  1880 PWs)   bands (ev):

    -3.8369   2.1374  10.0424  10.7864  21.7518  21.8651  22.4343  28.7168

          k = 0.4375-0.4375 0.5625 (  1885 PWs)   bands (ev):

    -2.3660   0.1996  10.1441  10.3154  21.5570  22.1282  22.5595  28.9537

          k = 0.3125-0.3125 0.4375 (  1878 PWs)   bands (ev):

    -4.6279   3.3855  10.4113  10.7825  21.1494  22.2905  22.3735  28.2872

          k = 0.1875-0.1875 0.3125 (  1885 PWs)   bands (ev):

    -6.5686   7.4918  11.0890  11.8095  20.1949  21.7339  21.7342  27.3988

          k = 0.0625-0.0625 0.1875 (  1874 PWs)   bands (ev):

    -7.7090  11.4648  12.2008  12.7705  18.9515  20.2935  20.3493  26.8860

          k =-0.0625 0.3125 0.0625 (  1881 PWs)   bands (ev):

    -7.1363  10.1529  10.9748  11.7227  18.6118  21.9567  21.9715  26.3912

          k =-0.1875 0.4375-0.0625 (  1882 PWs)   bands (ev):

    -6.0027   7.6218   9.2340  10.8979  19.2693  23.1906  23.7736  25.4947

          k =-0.3125 0.5625-0.1875 (  1880 PWs)   bands (ev):

    -4.0782   3.7821   8.5973   9.7922  20.4636  23.3454  24.7123  26.3488

          k = 0.5625-0.3125 0.6875 (  1868 PWs)   bands (ev):

    -1.8547   0.7076   8.1916   9.3954  21.0863  22.9433  24.9188  28.3899

          k = 0.4375-0.1875 0.5625 (  1877 PWs)   bands (ev):

    -3.3002   2.5981   7.9106  10.0633  21.6673  22.3140  24.6873  27.9171

          k = 0.3125-0.0625 0.4375 (  1882 PWs)   bands (ev):

    -5.4452   6.3607   8.2392  11.2243  20.8683  22.3476  23.7827  26.5441

          k = 0.1875 0.0625 0.3125 (  1883 PWs)   bands (ev):

    -6.8518   8.8991  10.3986  12.1491  19.5916  21.8154  21.9181  26.8514

          k =-0.0625 0.5625 0.0625 (  1881 PWs)   bands (ev):

    -5.1590   7.4336   8.7539   8.7883  17.9361  22.8264  25.6775  25.6844

          k =-0.1875 0.6875-0.0625 (  1875 PWs)   bands (ev):

    -3.5135   5.1735   7.1548   8.0411  18.7840  22.0712  26.3464  27.4746

          k = 0.6875-0.1875 0.8125 (  1866 PWs)   bands (ev):

    -1.2773   2.3293   5.6649   7.9383  19.7179  24.4333  26.0588  27.8864

          k = 0.5625-0.0625 0.6875 (  1867 PWs)   bands (ev):

    -1.3413   2.4944   4.7672   8.7164  20.5509  24.8629  27.2659  27.7953

          k = 0.4375 0.0625 0.5625 (  1874 PWs)   bands (ev):

    -3.5446   4.1687   6.2714   9.9943  21.6767  22.6955  25.7890  26.9564

          k = 0.3125 0.1875 0.4375 (  1878 PWs)   bands (ev):

    -5.1704   4.8379   9.5898  11.0393  20.8629  22.3669  23.0817  27.3827

          k =-0.0625 0.8125 0.0625 (  1871 PWs)   bands (ev):

    -2.1579   3.6950   7.0169   7.4016  17.8061  19.7353  28.8855  28.9374

          k = 0.8125-0.0625 0.9375 (  1863 PWs)   bands (ev):

    -0.1335   1.7620   5.8820   6.9457  18.8305  20.1604  28.9806  29.4811

          k = 0.6875 0.0625 0.8125 (  1867 PWs)   bands (ev):

     0.1253   1.8054   4.3074   7.6447  19.5356  24.1270  27.1542  28.5238

          k = 0.5625 0.1875 0.6875 (  1866 PWs)   bands (ev):

    -1.3594   1.1993   6.5047   8.9351  20.7429  23.9614  26.3101  28.1220

          k = 0.4375 0.3125 0.5625 (  1877 PWs)   bands (ev):

    -2.8503   1.1811   9.3516  10.1688  21.4861  22.2169  23.4588  28.6453

          k =-0.0625-0.9375 0.0625 (  1859 PWs)   bands (ev):

    -0.3353   1.6418   6.7018   7.1237  18.0580  18.8217  29.7561  29.8381

          k =-0.1875-0.8125-0.0625 (  1867 PWs)   bands (ev):

    -1.9151   3.6084   6.3056   7.2771  18.7475  20.8686  27.8384  28.8653

          k =-0.3125-0.6875-0.1875 (  1875 PWs)   bands (ev):

    -2.7579   2.9506   7.3251   8.5995  20.0492  24.4853  25.3071  26.5381

          k =-0.0625-0.6875 0.0625 (  1879 PWs)   bands (ev):

    -3.7767   5.6976   7.6791   7.9504  17.7723  21.0829  27.4324  27.4522

          k =-0.1875-0.5625-0.0625 (  1885 PWs)   bands (ev):

    -4.8847   6.4237   8.1631   9.3738  18.9719  23.6653  24.7626  25.6956

          k =-0.0625-0.4375 0.0625 (  1881 PWs)   bands (ev):

    -6.2834   8.8315   9.7817  10.2806  18.2412  23.7964  23.8223  24.7960

          k =-0.1875 0.1875 0.1875 (  1883 PWs)   bands (ev):

    -7.1369   8.8737  12.1018  12.1018  20.4715  20.4715  20.9348  27.4526

          k =-0.3125 0.3125 0.0625 (  1887 PWs)   bands (ev):

    -6.2859   7.5882   9.3395  12.0616  20.7182  21.8665  22.2487  27.1727

          k =-0.4375 0.4375-0.0625 (  1878 PWs)   bands (ev):

    -4.6201   5.1864   7.2005  10.9506  21.7336  22.2810  24.2807  27.2019

          k = 0.4375-0.4375 0.8125 (  1868 PWs)   bands (ev):

    -2.3340   1.6753   7.1848   9.7989  20.8914  23.6510  24.9836  28.6137

          k = 0.3125-0.3125 0.6875 (  1870 PWs)   bands (ev):

    -2.3202   1.6352   7.8995   9.1244  20.1663  24.5117  25.0530  26.9726

          k = 0.1875-0.1875 0.5625 (  1878 PWs)   bands (ev):

    -4.6133   5.1201   9.1112   9.1165  19.4037  24.6824  24.7467  24.7996

          k =-0.1875 0.4375 0.1875 (  1881 PWs)   bands (ev):

    -5.7237   6.2243  10.0431  10.7138  19.8070  23.1079  23.1998  26.2854

          k =-0.3125 0.5625 0.0625 (  1874 PWs)   bands (ev):

    -4.3419   5.2698   7.2415   9.8290  20.6868  23.1785  25.1898  25.8156

          k = 0.5625-0.3125 0.9375 (  1865 PWs)   bands (ev):

    -2.2525   3.3332   5.5228   8.5353  22.1257  22.8292  25.9784  27.6734

          k = 0.4375-0.1875 0.8125 (  1865 PWs)   bands (ev):

    -0.8511   1.5961   5.8291   7.7619  21.3611  23.8304  26.5766  27.7007

          k = 0.3125-0.0625 0.6875 (  1870 PWs)   bands (ev):

    -2.9969   4.2929   6.3799   8.2409  20.5246  23.4493  24.8858  27.5440

          k =-0.1875 0.6875 0.1875 (  1872 PWs)   bands (ev):

    -3.2564   4.1588   7.3228   8.3684  19.0479  23.3543  26.2780  26.4867

          k = 0.6875-0.1875 1.0625 (  1864 PWs)   bands (ev):

    -1.4489   3.2644   5.6113   6.9679  20.4527  22.6556  26.0845  28.6691

          k = 0.5625-0.0625 0.9375 (  1872 PWs)   bands (ev):

     0.5698   1.9352   4.6441   5.8936  22.5144  24.0954  25.6584  26.9350

          k = 0.4375 0.0625 0.8125 (  1865 PWs)   bands (ev):

    -0.8157   2.6425   4.9802   6.9717  22.4521  23.4406  25.4377  28.0044

          k =-0.1875-1.0625 0.1875 (  1861 PWs)   bands (ev):

     0.0098   1.7976   4.8483   7.5942  18.6460  21.9641  28.4739  29.1706

          k =-0.3125-0.9375 0.0625 (  1866 PWs)   bands (ev):

     0.2216   1.9089   5.0755   6.3893  20.4561  22.1420  27.4253  28.5701

          k =-0.1875-0.8125 0.1875 (  1866 PWs)   bands (ev):

    -1.6882   3.1655   5.7206   7.8555  18.7852  22.4264  27.6248  28.0651

          k =-0.3125 0.3125 0.3125 (  1886 PWs)   bands (ev):

    -5.4492   4.6504  11.1208  11.1208  21.4945  21.4945  21.8246  28.4142

          k =-0.4375 0.4375 0.1875 (  1878 PWs)   bands (ev):

    -4.3544   3.6061   8.7685  10.9028  21.8067  22.0136  23.3173  28.0587

          k = 0.4375-0.4375 1.0625 (  1866 PWs)   bands (ev):

    -2.5223   3.2218   5.4123   9.6689  20.7009  24.2599  26.4097  27.8941

          k = 0.3125-0.3125 0.9375 (  1875 PWs)   bands (ev):

    -0.4264   1.9307   4.2807   8.4824  19.5386  26.2368  26.4497  28.1360

          k =-0.3125 0.5625 0.3125 (  1879 PWs)   bands (ev):

    -3.5651   2.3594   9.5981   9.7146  20.6707  23.3251  23.5496  27.6325

          k = 0.5625-0.3125 1.1875 (  1874 PWs)   bands (ev):

    -2.0681   1.8789   7.0158   8.8040  21.5559  22.8134  26.1896  27.5560

          k = 0.4375-0.1875 1.0625 (  1869 PWs)   bands (ev):

    -0.1730   2.0466   4.4477   7.3094  21.2351  24.9657  26.4653  27.2178

          k =-0.3125-1.1875 0.3125 (  1866 PWs)   bands (ev):

    -1.0924   1.3751   6.0053   8.7018  19.7605  25.6684  26.3775  26.7938

          k =-0.4375 0.4375 0.4375 (  1877 PWs)   bands (ev):

    -3.1145   0.9327  10.5848  10.5848  21.7549  21.7549  22.1610  28.9384

          k = 0.4375-0.4375 1.3125 (  1874 PWs)   bands (ev):

    -2.1116   0.4609   8.8854  10.0317  21.2184  22.8236  23.6016  28.8897

     the Fermi energy is    15.3775 ev

!    total energy              =     -22.77137568 Ry
     Harris-Foulkes estimate   =     -22.77137568 Ry
     estimated scf accuracy    <          7.7E-14 Ry

     The total energy is the sum of the following terms:

     one-electron contribution =       7.98758197 Ry
     hartree contribution      =       1.93199575 Ry
     xc contribution           =      -7.12039342 Ry
     ewald contribution        =     -25.57055997 Ry
     smearing contrib. (-TS)   =       0.00000000 Ry

     convergence has been achieved in  11 iterations

     Forces acting on atoms (Ry/au):

     atom    1 type  1   force =    -0.00000000   -0.00000000   -0.00000000
     atom    2 type  1   force =     0.00000000    0.00000000    0.00000000

     Total force =     0.000000     Total SCF correction =     0.000000


     entering subroutine stress ...

          total   stress  (Ry/bohr**3)                   (kbar)     P=   -0.18
  -0.00000126   0.00000000   0.00000000         -0.18      0.00      0.00
  -0.00000000  -0.00000126   0.00000000         -0.00     -0.18      0.00
  -0.00000000  -0.00000000  -0.00000126         -0.00     -0.00     -0.18


     Writing output data file C-diamond.save
 
     init_run     :      0.89s CPU      0.90s WALL (       1 calls)
     electrons    :     20.09s CPU     20.14s WALL (       1 calls)
     forces       :      0.12s CPU      0.12s WALL (       1 calls)
     stress       :      0.51s CPU      0.52s WALL (       1 calls)

     Called by init_run:
     wfcinit      :      0.66s CPU      0.66s WALL (       1 calls)
     potinit      :      0.07s CPU      0.07s WALL (       1 calls)

     Called by electrons:
     c_bands      :     16.68s CPU     16.72s WALL (      11 calls)
     sum_band     :      2.40s CPU      2.41s WALL (      11 calls)
     v_of_rho     :      0.64s CPU      0.65s WALL (      12 calls)
     newd         :      0.33s CPU      0.33s WALL (      12 calls)
     mix_rho      :      0.07s CPU      0.07s WALL (      11 calls)

     Called by c_bands:
     init_us_2    :      0.45s CPU      0.42s WALL (    1500 calls)
     cegterg      :     15.79s CPU     15.85s WALL (     660 calls)

     Called by *egterg:
     h_psi        :     15.10s CPU     15.14s WALL (    1758 calls)
     s_psi        :      0.22s CPU      0.22s WALL (    1758 calls)
     g_psi        :      0.13s CPU      0.14s WALL (    1038 calls)
     cdiaghg      :      0.15s CPU      0.15s WALL (    1698 calls)

     Called by h_psi:
     add_vuspsi   :      0.22s CPU      0.22s WALL (    1758 calls)

     General routines
     calbec       :      0.33s CPU      0.34s WALL (    2538 calls)
     fft          :      0.38s CPU      0.39s WALL (     196 calls)
     ffts         :      0.02s CPU      0.02s WALL (      23 calls)
     fftw         :     14.02s CPU     14.05s WALL (   27766 calls)
     interpolate  :      0.07s CPU      0.07s WALL (      23 calls)
     davcio       :      0.00s CPU      0.00s WALL (      60 calls)
 
     Parallel routines
     fft_scatter  :      0.94s CPU      0.91s WALL (   27985 calls)
 
     PWSCF        :    21.72s CPU        21.82s WALL

 
   This run was terminated on:  11:37:51  31Oct2013            

=------------------------------------------------------------------------------=
   JOB DONE.
=------------------------------------------------------------------------------=
