
     Program PWSCF v.5.0.2 starts on 31Oct2013 at 11:37:51 

     This program is part of the open-source Quantum ESPRESSO suite
     for quantum simulation of materials; please cite
         "P. Giannozzi et al., J. Phys.:Condens. Matter 21 395502 (2009);
          URL http://www.quantum-espresso.org", 
     in publications or presentations arising from this work. More details at
     http://www.quantum-espresso.org/quote

     Parallel version (MPI), running on     1 processors
     Waiting for input...
     Reading input from standard input
Warning: card  &SHIRLEY ignored
Warning: card   USE_SHIRLEY = .FALSE. ignored
Warning: card  / ignored

     Current dimensions of program PWSCF are:
     Max number of different atomic species (ntypx) = 10
     Max number of k-points (npk) =  40000
     Max angular momentum in pseudopotentials (lmaxx) =  3

     Atomic positions and unit cell read from directory:
     ./raw/C-diamond.save/
 
               file C.pbe-rrkjus.UPF: wavefunction(s)  2S 2P renormalized

     Subspace diagonalization in iterative solution of the eigenvalue problem:
     a serial algorithm will be used

 
     G-vector sticks info
     --------------------
     sticks:   dense  smooth     PW     G-vecs:    dense   smooth      PW
     Sum        1615     805    253                42255    15065    2637
 


     bravais-lattice index     =            2
     lattice parameter (alat)  =       6.7412  a.u.
     unit-cell volume          =      76.5881 (a.u.)^3
     number of atoms/cell      =            2
     number of atomic types    =            1
     number of electrons       =         8.00
     number of Kohn-Sham states=            8
     kinetic-energy cutoff     =     128.0000  Ry
     charge density cutoff     =    1024.0000  Ry
     Exchange-correlation      =  SLA  PW   PBE  PBE ( 1  4  3  4 0)

     celldm(1)=   6.741250  celldm(2)=   0.000000  celldm(3)=   0.000000
     celldm(4)=   0.000000  celldm(5)=   0.000000  celldm(6)=   0.000000

     crystal axes: (cart. coord. in units of alat)
               a(1) = (  -0.500000   0.000000   0.500000 )  
               a(2) = (   0.000000   0.500000   0.500000 )  
               a(3) = (  -0.500000   0.500000   0.000000 )  

     reciprocal axes: (cart. coord. in units 2 pi/alat)
               b(1) = ( -1.000000 -1.000000  1.000000 )  
               b(2) = (  1.000000  1.000000  1.000000 )  
               b(3) = ( -1.000000  1.000000 -1.000000 )  


     PseudoPot. # 1 for C  read from file:
     ../pseudo/C.pbe-rrkjus.UPF
     MD5 check sum: 00fb224312de0c5b6853bd333518df6f
     Pseudo is Ultrasoft, Zval =  4.0
     Generated by new atomic code, or converted to UPF format
     Using radial grid of  627 points,  4 beta functions with: 
                l(1) =   0
                l(2) =   0
                l(3) =   1
                l(4) =   1
     Q(r) pseudized with 0 coefficients 


     atomic species   valence    mass     pseudopotential
        C              4.00    12.01000     C ( 1.00)

     No symmetry found



   Cartesian axes

     site n.     atom                  positions (alat units)
         1           C   tau(   1) = (   0.0000000   0.0000000   0.0000000  )
         2           C   tau(   2) = (   0.2500000   0.2500000   0.2500000  )

     number of k points=    15  Fermi-Dirac smearing, width (Ry)=  0.0000
                       cart. coord. in units 2pi/alat
        k(    1) = (   0.0000000   0.0000000   0.0000000), wk =   0.1333333
        k(    2) = (   0.5000000   0.0000000   0.0000000), wk =   0.1333333
        k(    3) = (   1.0000000   0.0000000   0.0000000), wk =   0.1333333
        k(    4) = (   1.0000000   0.2500000   0.0000000), wk =   0.1333333
        k(    5) = (   1.0000000   0.5000000   0.0000000), wk =   0.1333333
        k(    6) = (   0.7500000   0.5000000   0.2500000), wk =   0.1333333
        k(    7) = (   0.5000000   0.5000000   0.5000000), wk =   0.1333333
        k(    8) = (   0.2500000   0.2500000   0.2500000), wk =   0.1333333
        k(    9) = (   0.0000000   0.0000000   0.0000000), wk =   0.1333333
        k(   10) = (   0.5000000   0.5000000   0.0000000), wk =   0.1333333
        k(   11) = (   1.0000000   1.0000000   0.0000000), wk =   0.1333333
        k(   12) = (   0.8750000   0.8750000   0.0000000), wk =   0.1333333
        k(   13) = (   0.7500000   0.7500000   0.0000000), wk =   0.1333333
        k(   14) = (   0.6250000   0.6250000   0.2500000), wk =   0.1333333
        k(   15) = (   0.5000000   0.5000000   0.5000000), wk =   0.1333333

     Dense  grid:    42255 G-vectors     FFT dimensions: (  50,  50,  50)

     Smooth grid:    15065 G-vectors     FFT dimensions: (  36,  36,  36)

     Largest allocated arrays     est. size (Mb)     dimensions
        Kohn-Sham Wavefunctions         0.23 Mb     (    1893,    8)
        NL pseudopotentials             0.46 Mb     (    1893,   16)
        Each V/rho on FFT grid          1.91 Mb     (  125000)
        Each G-vector array             0.32 Mb     (   42255)
        G-vector shells                 0.00 Mb     (     395)
     Largest temporary arrays     est. size (Mb)     dimensions
        Auxiliary wavefunctions         0.92 Mb     (    1893,   32)
        Each subspace H/S matrix        0.02 Mb     (      32,   32)
        Each <psi_i|beta_j> matrix      0.00 Mb     (      16,    8)

     The potential is recalculated from file :
     ./raw/C-diamond.save/charge-density.dat

     Starting wfc are    8 randomized atomic wfcs

     Band Structure Calculation
     Davidson diagonalization with overlap

     ethr =  1.25E-14,  avg # of iterations = 12.3
     Warning: too many iterations in bisection
     Ef =  15.612811 sumk =   8.000000 electrons

     total cpu time spent up to now is        2.3 secs

     End of band structure calculation

          k = 0.0000 0.0000 0.0000 (  1893 PWs)   bands (ev):

    -8.1045  13.3085  13.3085  13.3085  18.8978  18.8978  18.8978  26.6851

          k = 0.5000 0.0000 0.0000 (  1876 PWs)   bands (ev):

    -5.8242   8.8186   9.2003   9.2003  17.7745  23.5959  24.8670  24.8670

          k = 1.0000 0.0000 0.0000 (  1868 PWs)   bands (ev):

     0.5924   0.5924   7.0286   7.0286  18.1088  18.1088  30.0518  30.0518

          k = 1.0000 0.2500 0.0000 (  1860 PWs)   bands (ev):

     0.9301   0.9301   6.0181   6.0181  20.2105  20.2105  28.8284  28.8284

          k = 1.0000 0.5000 0.0000 (  1888 PWs)   bands (ev):

     1.3836   1.3836   5.0127   5.0127  23.9362  23.9362  25.6236  25.6236

          k = 0.7500 0.5000 0.2500 (  1868 PWs)   bands (ev):

    -1.3269   0.9855   7.0213   8.6365  21.6196  22.7708  26.3455  28.1481

          k = 0.5000 0.5000 0.5000 (  1892 PWs)   bands (ev):

    -2.3354  -0.0236  10.5165  10.5165  21.7666  21.7666  22.1990  28.9907

          k = 0.2500 0.2500 0.2500 (  1886 PWs)   bands (ev):

    -6.3924   6.7455  11.5686  11.5686  21.0899  21.0899  21.4724  27.9459

          k = 0.0000 0.0000 0.0000 (  1893 PWs)   bands (ev):

    -8.1045  13.3085  13.3085  13.3085  18.8978  18.8978  18.8978  26.6851

          k = 0.5000 0.5000 0.0000 (  1863 PWs)   bands (ev):

    -3.6446   4.6446   5.7288  10.3062  21.2573  23.2977  25.6530  27.2258

          k = 1.0000 1.0000 0.0000 (  1868 PWs)   bands (ev):

     0.5924   0.5924   7.0286   7.0286  18.1088  18.1088  30.0518  30.0518

          k = 0.8750 0.8750 0.0000 (  1860 PWs)   bands (ev):

     0.6758   0.8505   5.7679   7.2679  18.3414  20.0066  29.3668  29.7102

          k = 0.7500 0.7500 0.0000 (  1878 PWs)   bands (ev):

     0.3831   1.6213   4.0213   7.9609  19.0216  24.0628  27.6313  28.9034

          k = 0.6250 0.6250 0.2500 (  1862 PWs)   bands (ev):

    -1.5771   0.7451   7.4629   9.3859  20.4962  24.1382  25.0567  28.2384

          k = 0.5000 0.5000 0.5000 (  1892 PWs)   bands (ev):

    -2.3354  -0.0236  10.5165  10.5165  21.7666  21.7666  22.1990  28.9907

     the Fermi energy is    15.6128 ev

     Writing output data file C-diamond.save
 
     init_run     :      0.21s CPU      0.21s WALL (       1 calls)
     electrons    :      1.99s CPU      1.99s WALL (       1 calls)

     Called by init_run:
     wfcinit      :      0.00s CPU      0.00s WALL (       1 calls)
     potinit      :      0.07s CPU      0.07s WALL (       1 calls)

     Called by electrons:
     c_bands      :      1.98s CPU      1.99s WALL (       1 calls)
     v_of_rho     :      0.05s CPU      0.05s WALL (       1 calls)
     newd         :      0.03s CPU      0.03s WALL (       1 calls)

     Called by c_bands:
     init_us_2    :      0.01s CPU      0.00s WALL (      15 calls)
     cegterg      :      1.80s CPU      1.81s WALL (      15 calls)

     Called by *egterg:
     h_psi        :      1.71s CPU      1.71s WALL (     215 calls)
     s_psi        :      0.02s CPU      0.03s WALL (     215 calls)
     g_psi        :      0.03s CPU      0.02s WALL (     185 calls)
     cdiaghg      :      0.03s CPU      0.03s WALL (     200 calls)

     Called by h_psi:
     add_vuspsi   :      0.02s CPU      0.03s WALL (     215 calls)

     General routines
     calbec       :      0.03s CPU      0.03s WALL (     215 calls)
     fft          :      0.03s CPU      0.03s WALL (      12 calls)
     ffts         :      0.00s CPU      0.00s WALL (       1 calls)
     fftw         :      1.44s CPU      1.44s WALL (    2836 calls)
     interpolate  :      0.01s CPU      0.01s WALL (       1 calls)
     davcio       :      0.00s CPU      0.00s WALL (      15 calls)
 
     Parallel routines
     fft_scatter  :      0.08s CPU      0.09s WALL (    2849 calls)
 
     PWSCF        :     2.35s CPU         2.36s WALL

 
   This run was terminated on:  11:37:54  31Oct2013            

=------------------------------------------------------------------------------=
   JOB DONE.
=------------------------------------------------------------------------------=
