
     Program PWSCF v.5.0        starts on  1Nov2013 at 10:56: 9 

     This program is part of the open-source Quantum ESPRESSO suite
     for quantum simulation of materials; please cite
         "P. Giannozzi et al., J. Phys.:Condens. Matter 21 395502 (2009);
          URL http://www.quantum-espresso.org", 
     in publications or presentations arising from this work. More details at
     http://www.quantum-espresso.org/quote.php

     Parallel version (MPI), running on     1 processors

     Current dimensions of program PWSCF are:
     Max number of different atomic species (ntypx) = 10
     Max number of k-points (npk) =  40000
     Max angular momentum in pseudopotentials (lmaxx) =  3
     Waiting for input...
     Reading input from standard input
               file Ge.pbe-dn-rrkjus_psl.0.2.2.UPF: wavefunction(s)  3D renormalized

     Subspace diagonalization in iterative solution of the eigenvalue problem:
     a serial algorithm will be used

 kpoint style unhandled: 
 none                                                                           
  
 
     G-vector sticks info
     --------------------
     sticks:   dense  smooth     PW     G-vecs:    dense   smooth      PW
     Sum        3115    1561    463               115633    40857    6615
 


     bravais-lattice index     =            2
     lattice parameter (alat)  =      10.8850  a.u.
     unit-cell volume          =     322.4225 (a.u.)^3
     number of atoms/cell      =            2
     number of atomic types    =            1
     number of electrons       =        28.00
     number of Kohn-Sham states=           18
     kinetic-energy cutoff     =      96.0000  Ry
     charge density cutoff     =     768.0000  Ry
     convergence threshold     =      1.0E-12
     mixing beta               =       0.3000
     number of iterations used =            8  plain     mixing
     Exchange-correlation      = PBE ( 1 4 3 4 0)
     EXX-fraction              =        0.00

     celldm(1)=  10.885000  celldm(2)=   0.000000  celldm(3)=   0.000000
     celldm(4)=   0.000000  celldm(5)=   0.000000  celldm(6)=   0.000000

     crystal axes: (cart. coord. in units of alat)
               a(1) = (  -0.500000   0.000000   0.500000 )  
               a(2) = (   0.000000   0.500000   0.500000 )  
               a(3) = (  -0.500000   0.500000   0.000000 )  

     reciprocal axes: (cart. coord. in units 2 pi/alat)
               b(1) = ( -1.000000 -1.000000  1.000000 )  
               b(2) = (  1.000000  1.000000  1.000000 )  
               b(3) = ( -1.000000  1.000000 -1.000000 )  


     PseudoPot. # 1 for Ge read from file:
     ../pseudo/Ge.pbe-dn-rrkjus_psl.0.2.2.UPF
     MD5 check sum: 9557dd4be68bf872fc867d431758ce48
     Pseudo is Ultrasoft + core correction, Zval = 14.0
     Generated using "atomic" code by A. Dal Corso  v.5.0.2 svn rev. 9415
     Using radial grid of 1207 points,  6 beta functions with: 
                l(1) =   0
                l(2) =   0
                l(3) =   1
                l(4) =   1
                l(5) =   2
                l(6) =   2
     Q(r) pseudized with 0 coefficients 


     atomic species   valence    mass     pseudopotential
        Ge            14.00    72.64000     Ge( 1.00)

     48 Sym. Ops., with inversion, found (24 have fractional translation)



   Cartesian axes

     site n.     atom                  positions (alat units)
         1           Ge  tau(   1) = (   0.0000000   0.0000000   0.0000000  )
         2           Ge  tau(   2) = (   0.2500000   0.2500000   0.2500000  )

     number of k points=   408  Fermi-Dirac smearing, width (Ry)=  0.0000

     Number of k-points >= 100: set verbosity='high' to print them.

     Dense  grid:   115633 G-vectors     FFT dimensions: (  72,  72,  72)

     Smooth grid:    40857 G-vectors     FFT dimensions: (  50,  50,  50)

     Largest allocated arrays     est. size (Mb)     dimensions
        Kohn-Sham Wavefunctions         1.41 Mb     (   5142,   18)
        NL pseudopotentials             2.82 Mb     (   5142,   36)
        Each V/rho on FFT grid          5.70 Mb     ( 373248)
        Each G-vector array             0.88 Mb     ( 115633)
        G-vector shells                 0.01 Mb     (    770)
     Largest temporary arrays     est. size (Mb)     dimensions
        Auxiliary wavefunctions         5.65 Mb     (   5142,   72)
        Each subspace H/S matrix        0.08 Mb     (  72,  72)
        Each <psi_i|beta_j> matrix      0.01 Mb     (     36,   18)
        Arrays for rho mixing          45.56 Mb     ( 373248,   8)

     Initial potential from superposition of free atoms

     starting charge   27.99847, renormalised to   28.00000
     Starting wfc are   18 randomized atomic wfcs

     total cpu time spent up to now is       36.4 secs

     per-process dynamical memory:    77.1 Mb

     Self-consistent Calculation

     iteration #  1     ecut=    96.00 Ry     beta=0.30
     Davidson diagonalization with overlap
     ethr =  1.00E-02,  avg # of iterations =  3.3

     Threshold (ethr) on eigenvalues was too large:
     Diagonalizing with lowered threshold

     Davidson diagonalization with overlap
     ethr =  1.08E-04,  avg # of iterations =  2.3

     total cpu time spent up to now is      251.2 secs

     total energy              =    -422.81906748 Ry
     Harris-Foulkes estimate   =    -422.82202246 Ry
     estimated scf accuracy    <       0.03118680 Ry

     iteration #  2     ecut=    96.00 Ry     beta=0.30
     Davidson diagonalization with overlap
     ethr =  1.11E-04,  avg # of iterations =  1.0
     Warning: too many iterations in bisection
     Ef =   7.614620 sumk =  28.000000 electrons

     total cpu time spent up to now is      344.4 secs

     total energy              =    -422.81697956 Ry
     Harris-Foulkes estimate   =    -422.81925926 Ry
     estimated scf accuracy    <       0.01395216 Ry

     iteration #  3     ecut=    96.00 Ry     beta=0.30
     Davidson diagonalization with overlap
     ethr =  4.98E-05,  avg # of iterations =  1.0

     total cpu time spent up to now is      437.3 secs

     total energy              =    -422.81754455 Ry
     Harris-Foulkes estimate   =    -422.81758907 Ry
     estimated scf accuracy    <       0.00017058 Ry

     iteration #  4     ecut=    96.00 Ry     beta=0.30
     Davidson diagonalization with overlap
     ethr =  6.09E-07,  avg # of iterations =  3.0

     total cpu time spent up to now is      565.4 secs

     total energy              =    -422.81760194 Ry
     Harris-Foulkes estimate   =    -422.81760445 Ry
     estimated scf accuracy    <       0.00002023 Ry

     iteration #  5     ecut=    96.00 Ry     beta=0.30
     Davidson diagonalization with overlap
     ethr =  7.23E-08,  avg # of iterations =  2.0

     total cpu time spent up to now is      680.0 secs

     total energy              =    -422.81760450 Ry
     Harris-Foulkes estimate   =    -422.81760587 Ry
     estimated scf accuracy    <       0.00000607 Ry

     iteration #  6     ecut=    96.00 Ry     beta=0.30
     Davidson diagonalization with overlap
     ethr =  2.17E-08,  avg # of iterations =  2.0

     total cpu time spent up to now is      781.5 secs

     total energy              =    -422.81760508 Ry
     Harris-Foulkes estimate   =    -422.81760512 Ry
     estimated scf accuracy    <       0.00000026 Ry

     iteration #  7     ecut=    96.00 Ry     beta=0.30
     Davidson diagonalization with overlap
     ethr =  9.38E-10,  avg # of iterations =  2.0

     total cpu time spent up to now is      902.8 secs

     total energy              =    -422.81760511 Ry
     Harris-Foulkes estimate   =    -422.81760517 Ry
     estimated scf accuracy    <       0.00000019 Ry

     iteration #  8     ecut=    96.00 Ry     beta=0.30
     Davidson diagonalization with overlap
     ethr =  6.69E-10,  avg # of iterations =  2.0

     total cpu time spent up to now is     1003.5 secs

     total energy              =    -422.81760513 Ry
     Harris-Foulkes estimate   =    -422.81760513 Ry
     estimated scf accuracy    <          9.2E-10 Ry

     iteration #  9     ecut=    96.00 Ry     beta=0.30
     Davidson diagonalization with overlap
     ethr =  3.27E-12,  avg # of iterations =  2.0

     total cpu time spent up to now is     1124.0 secs

     total energy              =    -422.81760513 Ry
     Harris-Foulkes estimate   =    -422.81760513 Ry
     estimated scf accuracy    <          3.5E-10 Ry

     iteration # 10     ecut=    96.00 Ry     beta=0.30
     Davidson diagonalization with overlap
     ethr =  1.25E-12,  avg # of iterations =  2.0

     total cpu time spent up to now is     1224.1 secs

     total energy              =    -422.81760513 Ry
     Harris-Foulkes estimate   =    -422.81760513 Ry
     estimated scf accuracy    <          7.5E-11 Ry

     iteration # 11     ecut=    96.00 Ry     beta=0.30
     Davidson diagonalization with overlap
     ethr =  2.68E-13,  avg # of iterations =  2.0

     total cpu time spent up to now is     1326.3 secs

     total energy              =    -422.81760513 Ry
     Harris-Foulkes estimate   =    -422.81760513 Ry
     estimated scf accuracy    <          1.8E-12 Ry

     iteration # 12     ecut=    96.00 Ry     beta=0.30
     Davidson diagonalization with overlap
     ethr =  1.00E-13,  avg # of iterations =  1.0

     total cpu time spent up to now is     1419.0 secs

     End of self-consistent calculation

          k =-0.0312 0.0312 0.0312 (  5050 PWs)   bands (ev):

   -16.9521 -16.9521 -16.9513 -16.9192 -16.9192 -16.7376 -16.7376 -16.7362
   -16.7262 -16.7262  -4.5619   7.0174   7.7758   7.7758   8.0686  10.3643
    10.3643  10.3726

          k =-0.0938 0.0938-0.0312 (  5074 PWs)   bands (ev):

   -16.9556 -16.9536 -16.9511 -16.9164 -16.9145 -16.7447 -16.7415 -16.7348
   -16.7248 -16.7201  -4.5015   6.2240   7.5125   7.7348   8.5612  10.4305
    10.4697  10.7452

          k =-0.1562 0.1562-0.0938 (  5080 PWs)   bands (ev):

   -16.9607 -16.9582 -16.9491 -16.9099 -16.9069 -16.7522 -16.7478 -16.7369
   -16.7193 -16.7141  -4.3518   5.1331   7.2187   7.5436   8.7274  10.6931
    10.8404  11.4047

          k =-0.2188 0.2188-0.1562 (  5099 PWs)   bands (ev):

   -16.9655 -16.9630 -16.9463 -16.9026 -16.8989 -16.7591 -16.7540 -16.7403
   -16.7139 -16.7092  -4.1164   4.0215   6.9345   7.2876   8.6030  11.0200
    11.2408  12.2965

          k =-0.2812 0.2812-0.2188 (  5105 PWs)   bands (ev):

   -16.9692 -16.9670 -16.9429 -16.8959 -16.8918 -16.7646 -16.7593 -16.7444
   -16.7094 -16.7055  -3.8037   2.9604   6.6898   7.0301   8.4053  11.2882
    11.5032  13.3011

          k =-0.3438 0.3438-0.2812 (  5108 PWs)   bands (ev):

   -16.9716 -16.9700 -16.9395 -16.8905 -16.8867 -16.7682 -16.7632 -16.7486
   -16.7058 -16.7029  -3.4309   1.9948   6.5012   6.8047   8.2220  11.4402
    11.5983  14.3240

          k =-0.4062 0.4062-0.3438 (  5110 PWs)   bands (ev):

   -16.9729 -16.9721 -16.9367 -16.8867 -16.8837 -16.7699 -16.7659 -16.7522
   -16.7033 -16.7016  -3.0369   1.1781   6.3763   6.6282   8.0843  11.5007
    11.5826  14.9702

          k =-0.4688 0.4688-0.4062 (  5129 PWs)   bands (ev):

   -16.9733 -16.9733 -16.9349 -16.8843 -16.8826 -16.7700 -16.7678 -16.7545
   -16.7016 -16.7012  -2.7107   0.6079   6.3183   6.5095   8.0042  11.5272
    11.5294  14.9952

          k = 0.4688-0.4688 0.5312 (  5134 PWs)   bands (ev):

   -16.9740 -16.9731 -16.9345 -16.8831 -16.8830 -16.7694 -16.7690 -16.7550
   -16.7015 -16.7007  -2.6081   0.4439   6.3276   6.4535   7.9862  11.4839
    11.5605  14.9764

          k = 0.4062-0.4062 0.4688 (  5120 PWs)   bands (ev):

   -16.9739 -16.9723 -16.9355 -16.8848 -16.8829 -16.7704 -16.7672 -16.7536
   -16.7026 -16.7007  -2.8031   0.7613   6.4029   6.4629   8.0311  11.4573
    11.6106  14.9976

          k = 0.3438-0.3438 0.4062 (  5111 PWs)   bands (ev):

   -16.9731 -16.9709 -16.9377 -16.8877 -16.8845 -16.7702 -16.7646 -16.7508
   -16.7045 -16.7016  -3.1665   1.4289   6.5383   6.5413   8.1368  11.4278
    11.6561  14.8265

          k = 0.2812-0.2812 0.3438 (  5105 PWs)   bands (ev):

   -16.9712 -16.9688 -16.9408 -16.8921 -16.8881 -16.7683 -16.7610 -16.7471
   -16.7071 -16.7035  -3.5600   2.3031   6.6782   6.7373   8.2968  11.3418
    11.6444  13.9756

          k = 0.2188-0.2188 0.2812 (  5108 PWs)   bands (ev):

   -16.9681 -16.9656 -16.9442 -16.8981 -16.8938 -16.7643 -16.7562 -16.7432
   -16.7107 -16.7067  -3.9157   3.3058   6.8775   6.9807   8.4949  11.1382
    11.5105  12.9531

          k = 0.1562-0.1562 0.2188 (  5089 PWs)   bands (ev):

   -16.9639 -16.9615 -16.9474 -16.9052 -16.9012 -16.7584 -16.7501 -16.7395
   -16.7154 -16.7109  -4.2040   4.3900   7.1246   7.2510   8.6889  10.8129
    11.2324  11.9641

          k = 0.0938-0.0938 0.1562 (  5077 PWs)   bands (ev):

   -16.9587 -16.9567 -16.9500 -16.9126 -16.9092 -16.7513 -16.7433 -16.7368
   -16.7210 -16.7162  -4.4114   5.5090   7.3949   7.5054   8.7594  10.4615
    10.8707  11.1044

          k = 0.0312-0.0312 0.0938 (  5062 PWs)   bands (ev):

   -16.9538 -16.9527 -16.9516 -16.9182 -16.9161 -16.7438 -16.7368 -16.7354
   -16.7269 -16.7219  -4.5317   6.5685   7.6393   7.6724   8.4648  10.2689
    10.5389  10.5549

          k =-0.0312 0.1562 0.0312 (  5079 PWs)   bands (ev):

   -16.9560 -16.9539 -16.9526 -16.9164 -16.9107 -16.7521 -16.7357 -16.7336
   -16.7278 -16.7177  -4.4713   6.0368   7.4100   7.4363   8.9644  10.0971
    10.8441  10.8728

          k =-0.0938 0.2188-0.0312 (  5078 PWs)   bands (ev):

   -16.9605 -16.9565 -16.9519 -16.9120 -16.9032 -16.7609 -16.7408 -16.7308
   -16.7253 -16.7132  -4.3511   5.2629   7.0025   7.3087   9.3065  10.0737
    11.1606  11.4672

          k =-0.1562 0.2812-0.0938 (  5092 PWs)   bands (ev):

   -16.9660 -16.9610 -16.9485 -16.9054 -16.8948 -16.7687 -16.7476 -16.7340
   -16.7188 -16.7082  -4.1438   4.2683   6.6501   7.0948   9.2778  10.3813
    11.5580  12.1786

          k =-0.2188 0.3438-0.1562 (  5115 PWs)   bands (ev):

   -16.9708 -16.9654 -16.9439 -16.8985 -16.8872 -16.7750 -16.7539 -16.7391
   -16.7129 -16.7037  -3.8558   3.2444   6.3574   6.8411   9.0961  10.7870
    11.8584  12.8767

          k =-0.2812 0.4062-0.2188 (  5117 PWs)   bands (ev):

   -16.9744 -16.9689 -16.9389 -16.8924 -16.8815 -16.7788 -16.7593 -16.7451
   -16.7081 -16.7001  -3.5002   2.2742   6.1222   6.6111   8.9008  11.0937
    11.9769  13.5773

          k =-0.3438 0.4688-0.2812 (  5125 PWs)   bands (ev):

   -16.9769 -16.9715 -16.9343 -16.8873 -16.8785 -16.7797 -16.7639 -16.7512
   -16.7044 -16.6976  -3.1064   1.4181   5.9413   6.4409   8.7384  11.2513
    11.9550  14.3335

          k =-0.4062 0.5312-0.3438 (  5118 PWs)   bands (ev):

   -16.9782 -16.9732 -16.9307 -16.8832 -16.8781 -16.7778 -16.7680 -16.7562
   -16.7017 -16.6963  -2.7420   0.7594   5.8124   6.3490   8.6276  11.3222
    11.8762  14.9537

          k = 0.5312-0.4062 0.5938 (  5127 PWs)   bands (ev):

   -16.9785 -16.9743 -16.9288 -16.8806 -16.8793 -16.7740 -16.7717 -16.7593
   -16.7000 -16.6962  -2.5461   0.4449   5.7369   6.3410   8.5764  11.3703
    11.8024  15.1695

          k = 0.4688-0.3438 0.5312 (  5122 PWs)   bands (ev):

   -16.9779 -16.9745 -16.9292 -16.8828 -16.8782 -16.7754 -16.7690 -16.7594
   -16.6998 -16.6970  -2.6497   0.6083   5.7208   6.4133   8.5872  11.4111
    11.7686  15.1406

          k = 0.4062-0.2812 0.4688 (  5121 PWs)   bands (ev):

   -16.9765 -16.9737 -16.9318 -16.8865 -16.8782 -16.7771 -16.7657 -16.7554
   -16.7017 -16.6980  -2.9773   1.1727   5.7713   6.5571   8.6590  11.4125
    11.7854  14.7359

          k = 0.3438-0.2188 0.4062 (  5120 PWs)   bands (ev):

   -16.9746 -16.9714 -16.9359 -16.8910 -16.8808 -16.7765 -16.7628 -16.7488
   -16.7055 -16.6995  -3.3718   1.9745   5.8945   6.7609   8.7854  11.3232
    11.8062  13.9478

          k = 0.2812-0.1562 0.3438 (  5116 PWs)   bands (ev):

   -16.9719 -16.9677 -16.9409 -16.8964 -16.8860 -16.7732 -16.7590 -16.7416
   -16.7107 -16.7021  -3.7445   2.9114   6.0962   7.0073   8.9504  11.0986
    11.7130  13.1592

          k = 0.2188-0.0938 0.2812 (  5105 PWs)   bands (ev):

   -16.9680 -16.9630 -16.9458 -16.9027 -16.8934 -16.7674 -16.7539 -16.7350
   -16.7171 -16.7059  -4.0568   3.9172   6.3834   7.2674   9.1121  10.7471
    11.4106  12.4685

          k = 0.1562-0.0312 0.2188 (  5084 PWs)   bands (ev):

   -16.9632 -16.9579 -16.9497 -16.9093 -16.9018 -16.7600 -16.7478 -16.7298
   -16.7242 -16.7108  -4.2918   4.9145   6.7711   7.4872   9.1529  10.3999
    11.0164  11.7815

          k = 0.0938 0.0312 0.1562 (  5073 PWs)   bands (ev):

   -16.9580 -16.9548 -16.9513 -16.9145 -16.9098 -16.7518 -16.7415 -16.7331
   -16.7250 -16.7165  -4.4413   5.7613   7.2812   7.5865   8.8834  10.2815
    10.7649  11.0736

          k =-0.0312 0.2812 0.0312 (  5089 PWs)   bands (ev):

   -16.9603 -16.9579 -16.9556 -16.9100 -16.8954 -16.7716 -16.7375 -16.7276
   -16.7258 -16.7125  -4.2604   4.9385   6.8431   6.8461   9.6465   9.9049
    11.6733  11.7113

          k =-0.0938 0.3438-0.0312 (  5099 PWs)   bands (ev):

   -16.9651 -16.9613 -16.9532 -16.9045 -16.8864 -16.7815 -16.7434 -16.7265
   -16.7212 -16.7092  -4.0817   4.2362   6.4145   6.6766   9.5999  10.1266
    12.0885  12.2546

          k =-0.1562 0.4062-0.0938 (  5117 PWs)   bands (ev):

   -16.9712 -16.9653 -16.9474 -16.8978 -16.8779 -16.7897 -16.7507 -16.7317
   -16.7146 -16.7037  -3.8197   3.3663   6.0373   6.4523   9.6633  10.3198
    12.4478  12.5954

          k =-0.2188 0.4688-0.1562 (  5122 PWs)   bands (ev):

   -16.9767 -16.9689 -16.9403 -16.8909 -16.8713 -16.7951 -16.7577 -16.7393
   -16.7089 -16.6982  -3.4846   2.4662   5.7059   6.2443   9.5603  10.7294
    12.5958  12.8214

          k =-0.2812 0.5312-0.2188 (  5120 PWs)   bands (ev):

   -16.9810 -16.9719 -16.9329 -16.8846 -16.8678 -16.7968 -16.7644 -16.7476
   -16.7042 -16.6936  -3.0981   1.6219   5.4210   6.1053   9.4121  11.0799
    12.5934  13.2251

          k =-0.3438 0.5938-0.2812 (  5128 PWs)   bands (ev):

   -16.9839 -16.9742 -16.9263 -16.8790 -16.8679 -16.7946 -16.7707 -16.7554
   -16.7006 -16.6905  -2.7107   0.9169   5.1914   6.0514   9.2934  11.2486
    12.5001  13.9396

          k = 0.5938-0.3438 0.6562 (  5124 PWs)   bands (ev):

   -16.9852 -16.9760 -16.9215 -16.8745 -16.8707 -16.7890 -16.7766 -16.7615
   -16.6979 -16.6892  -2.4374   0.4827   5.0279   6.0827   9.2275  11.3314
    12.3728  14.7856

          k = 0.5312-0.2812 0.5938 (  5119 PWs)   bands (ev):

   -16.9848 -16.9772 -16.9195 -16.8766 -16.8702 -16.7836 -16.7787 -16.7654
   -16.6963 -16.6899  -2.4407   0.4885   4.9409   6.1934   9.2203  11.4092
    12.2494  15.2234

          k = 0.4688-0.2188 0.5312 (  5124 PWs)   bands (ev):

   -16.9828 -16.9775 -16.9210 -16.8822 -16.8691 -16.7857 -16.7696 -16.7668
   -16.6960 -16.6925  -2.7178   0.9302   4.9404   6.3741   9.2693  11.4879
    12.1425  14.6253

          k = 0.4062-0.1562 0.4688 (  5123 PWs)   bands (ev):

   -16.9793 -16.9767 -16.9258 -16.8877 -16.8710 -16.7858 -16.7666 -16.7581
   -16.6986 -16.6954  -3.1055   1.6343   5.0394   6.6109   9.3631  11.4846
    12.0620  13.7496

          k = 0.3438-0.0938 0.4062 (  5118 PWs)   bands (ev):

   -16.9758 -16.9735 -16.9327 -16.8930 -16.8762 -16.7824 -16.7640 -16.7471
   -16.7049 -16.6977  -3.4910   2.4630   5.2576   6.8813   9.4736  11.2692
    11.9584  13.0624

          k = 0.2812-0.0312 0.3438 (  5107 PWs)   bands (ev):

   -16.9724 -16.9679 -16.9401 -16.8984 -16.8840 -16.7763 -16.7597 -16.7372
   -16.7129 -16.7011  -3.8247   3.3163   5.6302   7.1470   9.5252  10.8939
    11.6443  12.7325

          k = 0.2188 0.0312 0.2812 (  5098 PWs)   bands (ev):

   -16.9681 -16.9624 -16.9461 -16.9037 -16.8930 -16.7683 -16.7540 -16.7310
   -16.7201 -16.7056  -4.0852   4.0922   6.2023   7.3425   9.3534  10.6081
    11.3067  12.4056

          k = 0.1562 0.0938 0.2188 (  5086 PWs)   bands (ev):

   -16.9633 -16.9595 -16.9487 -16.9079 -16.9017 -16.7594 -16.7480 -16.7355
   -16.7192 -16.7110  -4.2625   4.7100   6.9483   7.3863   8.9380  10.5684
    11.1515  11.8002

          k =-0.0312 0.4062 0.0312 (  5092 PWs)   bands (ev):

   -16.9646 -16.9633 -16.9569 -16.9001 -16.8764 -16.7938 -16.7461 -16.7203
   -16.7182 -16.7112  -3.9312   3.8446   6.2607   6.2768   9.2003  10.4514
    12.6349  12.6428

          k =-0.0938 0.4688-0.0312 (  5096 PWs)   bands (ev):

   -16.9696 -16.9670 -16.9523 -16.8935 -16.8666 -16.8044 -16.7525 -16.7235
   -16.7128 -16.7066  -3.6959   3.2049   5.8716   6.0886   9.1922  10.4658
    12.8945  13.1061

          k =-0.1562 0.5312-0.0938 (  5106 PWs)   bands (ev):

   -16.9764 -16.9703 -16.9439 -16.8863 -16.8584 -16.8123 -16.7601 -16.7324
   -16.7073 -16.6991  -3.3833   2.4562   5.4615   5.8960   9.3827  10.5712
    12.8011  13.3960

          k =-0.2188 0.5938-0.1562 (  5116 PWs)   bands (ev):

   -16.9825 -16.9733 -16.9341 -16.8790 -16.8535 -16.8162 -16.7679 -16.7429
   -16.7025 -16.6922  -3.0096   1.6944   5.0642   5.7677   9.4506  11.0220
    12.6891  13.4672

          k =-0.2812 0.6562-0.2188 (  5127 PWs)   bands (ev):

   -16.9872 -16.9758 -16.9246 -16.8722 -16.8528 -16.8152 -16.7757 -16.7532
   -16.6985 -16.6869  -2.6118   1.0031   4.7227   5.7248   9.4250  11.5627
    12.8264  13.4008

          k = 0.6562-0.2812 0.7188 (  5127 PWs)   bands (ev):

   -16.9901 -16.9779 -16.9168 -16.8662 -16.8562 -16.8098 -16.7832 -16.7617
   -16.6955 -16.6838  -2.2796   0.4991   4.4632   5.7679   9.4145  11.7941
    13.1249  13.6399

          k = 0.5938-0.2188 0.6562 (  5126 PWs)   bands (ev):

   -16.9910 -16.9794 -16.9121 -16.8646 -16.8599 -16.8012 -16.7892 -16.7673
   -16.6934 -16.6830  -2.1829   0.3646   4.3017   5.8923   9.4536  11.8519
    12.9837  14.5543

          k = 0.5312-0.1562 0.5938 (  5127 PWs)   bands (ev):

   -16.9896 -16.9801 -16.9111 -16.8728 -16.8584 -16.7959 -16.7866 -16.7697
   -16.6925 -16.6849  -2.3974   0.6742   4.2540   6.0889   9.5413  11.8976
    12.7872  14.5268

          k = 0.4688-0.0938 0.5312 (  5123 PWs)   bands (ev):

   -16.9861 -16.9799 -16.9147 -16.8814 -16.8603 -16.7952 -16.7744 -16.7688
   -16.6929 -16.6895  -2.7710   1.2588   4.3431   6.3430   9.6552  11.9057
    12.5795  13.5979

          k = 0.4062-0.0312 0.4688 (  5117 PWs)   bands (ev):

   -16.9807 -16.9785 -16.9223 -16.8882 -16.8663 -16.7910 -16.7685 -16.7587
   -16.6965 -16.6943  -3.1643   1.9398   4.6061   6.6295   9.7385  11.6679
    12.4432  12.8675

          k = 0.3438 0.0312 0.4062 (  5115 PWs)   bands (ev):

   -16.9759 -16.9742 -16.9319 -16.8934 -16.8750 -16.7839 -16.7645 -16.7467
   -16.7047 -16.6973  -3.5153   2.5969   5.0900   6.9053   9.6635  11.2493
    12.0302  12.8090

          k = 0.2812 0.0938 0.3438 (  5114 PWs)   bands (ev):

   -16.9722 -16.9678 -16.9404 -16.8977 -16.8847 -16.7752 -16.7593 -16.7388
   -16.7121 -16.7014  -3.7979   3.1631   5.8063   7.0994   9.2953  10.9852
    11.6817  12.8751

          k = 0.2188 0.1562 0.2812 (  5107 PWs)   bands (ev):

   -16.9680 -16.9641 -16.9451 -16.9008 -16.8938 -16.7659 -16.7542 -16.7397
   -16.7136 -16.7064  -4.0002   3.6352   6.6594   7.1284   8.7818  10.9347
    11.5073  12.6463

          k =-0.0312 0.5312 0.0312 (  5082 PWs)   bands (ev):

   -16.9699 -16.9691 -16.9538 -16.8871 -16.8551 -16.8177 -16.7581 -16.7192
   -16.7094 -16.7078  -3.4866   2.7714   5.7521   5.7825   8.8347  10.3296
    13.5879  13.6721

          k =-0.0938 0.5938-0.0312 (  5104 PWs)   bands (ev):

   -16.9744 -16.9725 -16.9473 -16.8795 -16.8450 -16.8284 -16.7655 -16.7267
   -16.7042 -16.7015  -3.1976   2.1853   5.4183   5.6009   8.8792  10.1833
    13.6820  14.1585

          k =-0.1562 0.6562-0.0938 (  5122 PWs)   bands (ev):

   -16.9812 -16.9752 -16.9366 -16.8716 -16.8388 -16.8342 -16.7737 -16.7384
   -16.6998 -16.6934  -2.8405   1.5449   4.9785   5.4688   9.0995  10.3340
    13.4912  14.3604

          k =-0.2188 0.7188-0.1562 (  5121 PWs)   bands (ev):

   -16.9875 -16.9776 -16.9249 -16.8638 -16.8409 -16.8311 -16.7823 -16.7509
   -16.6961 -16.6863  -2.4418   0.9219   4.5331   5.4215   9.1965  10.9576
    13.2871  14.3247

          k = 0.7188-0.2188 0.7812 (  5130 PWs)   bands (ev):

   -16.9921 -16.9796 -16.9147 -16.8566 -16.8415 -16.8289 -16.7908 -16.7617
   -16.6932 -16.6813  -2.0688   0.4078   4.1630   5.4613   9.2400  11.8598
    13.1604  14.1564

          k = 0.6562-0.1562 0.7188 (  5119 PWs)   bands (ev):

   -16.9946 -16.9810 -16.9079 -16.8514 -16.8450 -16.8232 -16.7982 -16.7686
   -16.6912 -16.6788  -1.8820   0.1735   3.9108   5.5841   9.3204  12.6049
    13.3846  13.9307

          k = 0.5938-0.0938 0.6562 (  5132 PWs)   bands (ev):

   -16.9945 -16.9818 -16.9054 -16.8575 -16.8471 -16.8115 -16.8016 -16.7714
   -16.6903 -16.6792  -2.0312   0.3640   3.8073   5.7821   9.4528  12.7277
    13.5426  14.2036

          k = 0.5312-0.0312 0.5938 (  5132 PWs)   bands (ev):

   -16.9918 -16.9816 -16.9069 -16.8704 -16.8502 -16.8040 -16.7918 -16.7714
   -16.6906 -16.6826  -2.3875   0.8259   3.8887   6.0409   9.6123  12.6565
    13.1320  13.6386

          k = 0.4688 0.0312 0.5312 (  5127 PWs)   bands (ev):

   -16.9868 -16.9804 -16.9132 -16.8812 -16.8580 -16.7976 -16.7760 -16.7689
   -16.6922 -16.6888  -2.7830   1.3486   4.1990   6.3358   9.7213  12.1413
    12.7923  13.1493

          k = 0.4062 0.0938 0.4688 (  5120 PWs)   bands (ev):

   -16.9803 -16.9779 -16.9235 -16.8881 -16.8680 -16.7891 -16.7677 -16.7586
   -16.6972 -16.6947  -3.1445   1.8260   4.7631   6.6236   9.6091  11.5790
    12.2406  13.2620

          k = 0.3438 0.1562 0.4062 (  5120 PWs)   bands (ev):

   -16.9753 -16.9724 -16.9342 -16.8922 -16.8783 -16.7798 -16.7633 -16.7479
   -16.7053 -16.6985  -3.4429   2.2398   5.5447   6.8332   9.1578  11.2948
    11.8776  13.4669

          k = 0.2812 0.2188 0.3438 (  5113 PWs)   bands (ev):

   -16.9715 -16.9679 -16.9412 -16.8945 -16.8873 -16.7706 -16.7593 -16.7447
   -16.7089 -16.7030  -3.6649   2.6142   6.4255   6.8762   8.5868  11.2154
    11.7017  13.5493

          k =-0.0312 0.6562 0.0312 (  5116 PWs)   bands (ev):

   -16.9750 -16.9743 -16.9462 -16.8715 -16.8422 -16.8326 -16.7728 -16.7275
   -16.7010 -16.7003  -2.9313   1.7282   5.3484   5.3888   8.5888   9.8289
    14.6077  14.7193

          k =-0.0938 0.7188-0.0312 (  5125 PWs)   bands (ev):

   -16.9788 -16.9772 -16.9379 -16.8631 -16.8526 -16.8226 -16.7811 -16.7366
   -16.6968 -16.6952  -2.5926   1.1901   5.0746   5.2345   8.6914   9.6799
    14.6514  15.2038

          k =-0.1562 0.7812-0.0938 (  5120 PWs)   bands (ev):

   -16.9851 -16.9792 -16.9255 -16.8585 -16.8546 -16.8161 -16.7900 -16.7496
   -16.6936 -16.6880  -2.2000   0.6429   4.6276   5.1733   8.9078   9.9648
    14.4469  15.3052

          k = 0.7812-0.1562 0.8438 (  5133 PWs)   bands (ev):

   -16.9909 -16.9808 -16.9133 -16.8582 -16.8465 -16.8151 -16.7991 -16.7622
   -16.6912 -16.6818  -1.8013   0.1541   4.1750   5.2011   9.0016  10.7557
    14.2281  15.1457

          k = 0.7188-0.0938 0.7812 (  5125 PWs)   bands (ev):

   -16.9950 -16.9820 -16.9055 -16.8495 -16.8397 -16.8223 -16.8073 -16.7702
   -16.6897 -16.6777  -1.5431  -0.1311   3.8256   5.3137   9.0996  11.8106
    14.0403  14.7940

          k = 0.6562-0.0312 0.7188 (  5125 PWs)   bands (ev):

   -16.9966 -16.9825 -16.9029 -16.8403 -16.8354 -16.8324 -16.8108 -16.7727
   -16.6891 -16.6765  -1.6514  -0.0046   3.6474   5.5042   9.2524  12.9634
    13.8841  14.1739

          k = 0.5938 0.0312 0.6562 (  5142 PWs)   bands (ev):

   -16.9952 -16.9823 -16.9039 -16.8556 -16.8430 -16.8144 -16.8053 -16.7724
   -16.6897 -16.6784  -2.0008   0.3739   3.6972   5.7596   9.4432  13.1828
    13.5937  13.9682

          k = 0.5312 0.0938 0.5938 (  5127 PWs)   bands (ev):

   -16.9911 -16.9811 -16.9084 -16.8713 -16.8533 -16.8010 -16.7899 -16.7708
   -16.6913 -16.6834  -2.3901   0.7684   4.0172   6.0571   9.5938  12.2817
    13.0196  14.0357

          k = 0.4688 0.1562 0.5312 (  5129 PWs)   bands (ev):

   -16.9847 -16.9789 -16.9174 -16.8818 -16.8643 -16.7910 -16.7717 -16.7685
   -16.6942 -16.6907  -2.7484   1.1074   4.6026   6.3563   9.5083  11.6550
    12.3634  14.1132

          k = 0.4062 0.2188 0.4688 (  5127 PWs)   bands (ev):

   -16.9780 -16.9752 -16.9287 -16.8872 -16.8746 -16.7815 -16.7657 -16.7570
   -16.7002 -16.6966  -3.0490   1.4064   5.3889   6.5895   9.0320  11.4298
    11.9087  14.2675

          k = 0.3438 0.2812 0.4062 (  5116 PWs)   bands (ev):

   -16.9738 -16.9707 -16.9373 -16.8894 -16.8831 -16.7730 -16.7632 -16.7498
   -16.7053 -16.7007  -3.2790   1.6981   6.2528   6.6639   8.4170  11.3636
    11.7366  14.4408

          k =-0.0312 0.7812 0.0312 (  5118 PWs)   bands (ev):

   -16.9790 -16.9784 -16.9343 -16.8663 -16.8542 -16.8099 -16.7894 -16.7406
   -16.6944 -16.6939  -2.2713   0.7260   5.0628   5.1097   8.4814   9.3019
    15.6387  15.7343

          k =-0.0938 0.8438-0.0312 (  5128 PWs)   bands (ev):

   -16.9819 -16.9804 -16.9243 -16.8758 -16.8452 -16.8003 -16.7985 -16.7511
   -16.6915 -16.6902  -1.8886   0.2335   4.8514   4.9985   8.6410   9.2256
    15.6500  16.1455

          k = 0.8438-0.0938 0.9062 (  5129 PWs)   bands (ev):

   -16.9874 -16.9816 -16.9114 -16.8793 -16.8364 -16.8079 -16.7959 -16.7643
   -16.6899 -16.6846  -1.4762  -0.2293   4.4284   5.0090   8.8109   9.7104
    15.4307  16.0392

          k = 0.7812-0.0312 0.8438 (  5125 PWs)   bands (ev):

   -16.9925 -16.9823 -16.9036 -16.8713 -16.8293 -16.8162 -16.8023 -16.7722
   -16.6890 -16.6797  -1.1832  -0.5187   4.0179   5.1064   8.9127  10.6489
    15.1526  15.4891

          k = 0.7188 0.0312 0.7812 (  5125 PWs)   bands (ev):

   -16.9956 -16.9825 -16.9030 -16.8526 -16.8330 -16.8193 -16.8141 -16.7726
   -16.6890 -16.6770  -1.3703  -0.3052   3.7559   5.2841   9.0693  11.7888
    14.4845  14.8198

          k = 0.6562 0.0938 0.7188 (  5129 PWs)   bands (ev):

   -16.9959 -16.9820 -16.9047 -16.8448 -16.8397 -16.8285 -16.8055 -16.7712
   -16.6898 -16.6772  -1.7345   0.0593   3.7372   5.5309   9.2765  12.8795
    13.5467  14.1646

          k = 0.5938 0.1562 0.6562 (  5126 PWs)   bands (ev):

   -16.9931 -16.9808 -16.9082 -16.8607 -16.8532 -16.8068 -16.7958 -16.7697
   -16.6916 -16.6808  -2.0922   0.3556   4.0152   5.8266   9.4632  12.2664
    13.2912  14.4141

          k = 0.5312 0.2188 0.5938 (  5130 PWs)   bands (ev):

   -16.9875 -16.9787 -16.9150 -16.8747 -16.8643 -16.7898 -16.7826 -16.7679
   -16.6943 -16.6872  -2.4128   0.5721   4.5709   6.1349   9.4260  11.5939
    12.5167  14.9664

          k = 0.4688 0.2812 0.5312 (  5116 PWs)   bands (ev):

   -16.9804 -16.9760 -16.9251 -16.8825 -16.8739 -16.7803 -16.7692 -16.7631
   -16.6979 -16.6947  -2.6832   0.7566   5.3236   6.3939   8.9502  11.4152
    11.9385  15.0233

          k = 0.4062 0.3438 0.4688 (  5119 PWs)   bands (ev):

   -16.9751 -16.9725 -16.9343 -16.8856 -16.8812 -16.7731 -16.7663 -16.7540
   -16.7026 -16.6995  -2.8938   0.9530   6.1414   6.5111   8.2963  11.4217
    11.6907  14.9836

          k =-0.0312 0.9062 0.0312 (  5121 PWs)   bands (ev):

   -16.9814 -16.9808 -16.9186 -16.8890 -16.8357 -16.8075 -16.7877 -16.7575
   -16.6905 -16.6900  -1.5149  -0.2225   4.9021   4.9526   8.5220   8.8827
    16.5172  16.5700

          k = 0.9062-0.0312 0.9688 (  5121 PWs)   bands (ev):

   -16.9833 -16.9819 -16.9074 -16.8971 -16.8264 -16.8170 -16.7793 -16.7689
   -16.6892 -16.6879  -1.0965  -0.6681   4.7546   4.8968   8.7079   8.9320
    16.4519  16.6122

          k = 0.8438 0.0312 0.9062 (  5125 PWs)   bands (ev):

   -16.9879 -16.9821 -16.9049 -16.8872 -16.8272 -16.8170 -16.7880 -16.7712
   -16.6891 -16.6839  -1.1019  -0.6337   4.3882   4.9762   8.7931   9.6555
    15.8353  16.1215

          k = 0.7812 0.0938 0.8438 (  5131 PWs)   bands (ev):

   -16.9920 -16.9818 -16.9076 -16.8662 -16.8375 -16.8082 -16.8072 -16.7681
   -16.6897 -16.6804  -1.4706  -0.2131   4.0704   5.1380   8.9426  10.6855
    14.7180  15.4388

          k = 0.7188 0.1562 0.7812 (  5124 PWs)   bands (ev):

   -16.9938 -16.9810 -16.9097 -16.8484 -16.8442 -16.8268 -16.7991 -16.7662
   -16.6911 -16.6792  -1.7942   0.1239   3.9627   5.3729   9.1581  11.8444
    13.5742  14.5208

          k = 0.6562 0.2188 0.7188 (  5125 PWs)   bands (ev):

   -16.9926 -16.9796 -16.9121 -16.8588 -16.8505 -16.8169 -16.7906 -16.7653
   -16.6931 -16.6810  -2.0702   0.3232   4.1573   5.6633   9.3735  12.2005
    13.3344  13.6753

          k = 0.5938 0.2812 0.6562 (  5130 PWs)   bands (ev):

   -16.9883 -16.9777 -16.9166 -16.8693 -16.8659 -16.7951 -16.7827 -16.7645
   -16.6956 -16.6859  -2.3000   0.4044   4.6460   5.9781   9.3883  11.5267
    12.6697  14.6732

          k = 0.5312 0.3438 0.5938 (  5119 PWs)   bands (ev):

   -16.9817 -16.9756 -16.9243 -16.8785 -16.8755 -16.7780 -16.7752 -16.7624
   -16.6983 -16.6930  -2.4847   0.4422   5.3390   6.2624   8.9252  11.3454
    12.0072  15.2592

          k = 0.4688 0.4062 0.5312 (  5133 PWs)   bands (ev):

   -16.9756 -16.9734 -16.9326 -16.8830 -16.8813 -16.7715 -16.7690 -16.7565
   -16.7011 -16.6991  -2.6230   0.5006   6.0878   6.4308   8.2342  11.4425
    11.6419  15.0584

          k =-0.0312-0.9688 0.0312 (  5111 PWs)   bands (ev):

   -16.9818 -16.9813 -16.9095 -16.8996 -16.8263 -16.8168 -16.7771 -16.7669
   -16.6897 -16.6892  -1.1038  -0.6722   4.8699   4.9210   8.5953   8.7320
    16.7626  16.7950

          k =-0.0938-0.9062-0.0312 (  5122 PWs)   bands (ev):

   -16.9829 -16.9814 -16.9162 -16.8868 -16.8358 -16.8076 -16.7896 -16.7597
   -16.6900 -16.6887  -1.5027  -0.2254   4.7870   4.9307   8.6655   9.0505
    16.1029  16.4821

          k =-0.1562-0.8438-0.0938 (  5126 PWs)   bands (ev):

   -16.9865 -16.9806 -16.9187 -16.8693 -16.8456 -16.8057 -16.7988 -16.7567
   -16.6914 -16.6860  -1.8471   0.2012   4.5083   5.0748   8.8483   9.8161
    14.9480  15.7269

          k =-0.2188-0.7812-0.1562 (  5128 PWs)   bands (ev):

   -16.9894 -16.9794 -16.9193 -16.8554 -16.8491 -16.8237 -16.7905 -16.7563
   -16.6934 -16.6838  -2.1286   0.5359   4.3300   5.2957   9.0874  10.8521
    13.7402  14.7514

          k =-0.2812-0.7188-0.2188 (  5127 PWs)   bands (ev):

   -16.9899 -16.9778 -16.9198 -16.8647 -16.8458 -16.8236 -16.7829 -16.7572
   -16.6957 -16.6839  -2.3447   0.7026   4.4194   5.5786   9.3354  11.7844
    12.8887  13.7715

          k =-0.3438-0.6562-0.2812 (  5125 PWs)   bands (ev):

   -16.9872 -16.9760 -16.9216 -16.8730 -16.8621 -16.8023 -16.7765 -16.7583
   -16.6980 -16.6870  -2.4964   0.6974   4.8134   5.8973   9.4049  11.4573
    12.8118  13.7632

          k =-0.4062-0.5938-0.3438 (  5121 PWs)   bands (ev):

   -16.9817 -16.9744 -16.9263 -16.8794 -16.8746 -16.7831 -16.7716 -16.7588
   -16.7000 -16.6928  -2.5875   0.6015   5.4262   6.2058   8.9614  11.2750
    12.1057  14.8845

          k =-0.0312-0.8438 0.0312 (  5119 PWs)   bands (ev):

   -16.9804 -16.9798 -16.9269 -16.8779 -16.8450 -16.7986 -16.7983 -16.7486
   -16.6921 -16.6916  -1.9046   0.2442   4.9666   5.0156   8.4829   9.0750
    16.1161  16.1929

          k =-0.0938-0.7812-0.0312 (  5126 PWs)   bands (ev):

   -16.9805 -16.9790 -16.9316 -16.8644 -16.8543 -16.8114 -16.7896 -16.7434
   -16.6938 -16.6924  -2.2524   0.7060   4.9475   5.0998   8.6488   9.4386
    15.1561  15.6998

          k =-0.1562-0.7188-0.0938 (  5120 PWs)   bands (ev):

   -16.9833 -16.9774 -16.9315 -16.8634 -16.8474 -16.8265 -16.7816 -16.7435
   -16.6965 -16.6905  -2.5318   1.0917   4.7849   5.3047   8.9913  10.1444
    13.9539  14.8405

          k =-0.2188-0.6562-0.1562 (  5123 PWs)   bands (ev):

   -16.9851 -16.9755 -16.9299 -16.8718 -16.8446 -16.8264 -16.7747 -16.7463
   -16.6992 -16.6892  -2.7364   1.3085   4.7799   5.5788   9.3220  11.0352
    12.9135  13.8926

          k =-0.2812-0.5938-0.2188 (  5127 PWs)   bands (ev):

   -16.9842 -16.9738 -16.9290 -16.8789 -16.8604 -16.8061 -16.7694 -16.7500
   -16.7015 -16.6902  -2.8642   1.3091   5.0615   5.8999   9.4708  11.2835
    12.8372  13.1360

          k =-0.3438-0.5312-0.2812 (  5127 PWs)   bands (ev):

   -16.9804 -16.9726 -16.9305 -16.8838 -16.8734 -16.7870 -16.7664 -16.7530
   -16.7028 -16.6941  -2.9157   1.1573   5.5767   6.2318   9.0578  11.1921
    12.2118  14.1406

          k =-0.0312-0.7188 0.0312 (  5121 PWs)   bands (ev):

   -16.9771 -16.9766 -16.9408 -16.8630 -16.8543 -16.8212 -16.7809 -16.7336
   -16.6974 -16.6969  -2.6139   1.2212   5.1903   5.2344   8.5170   9.5568
    15.1283  15.2359

          k =-0.0938-0.6562-0.0312 (  5117 PWs)   bands (ev):

   -16.9767 -16.9750 -16.9431 -16.8716 -16.8406 -16.8338 -16.7730 -16.7310
   -16.7003 -16.6983  -2.9080   1.6838   5.2320   5.4018   8.7686   9.9359
    14.1543  14.6855

          k =-0.1562-0.5938-0.0938 (  5118 PWs)   bands (ev):

   -16.9789 -16.9729 -16.9407 -16.8793 -16.8482 -16.8238 -16.7665 -16.7347
   -16.7035 -16.6963  -3.1247   2.0002   5.2054   5.6659   9.2314  10.4965
    13.0909  13.8770

          k =-0.2188-0.5312-0.1562 (  5120 PWs)   bands (ev):

   -16.9796 -16.9711 -16.9376 -16.8855 -16.8625 -16.8056 -16.7621 -16.7405
   -16.7058 -16.6953  -3.2595   2.0799   5.3769   5.9891   9.5524  10.8876
    12.6543  13.0588

          k =-0.2812-0.4688-0.2188 (  5114 PWs)   bands (ev):

   -16.9777 -16.9702 -16.9362 -16.8891 -16.8750 -16.7876 -16.7609 -16.7461
   -16.7065 -16.6969  -3.3108   1.9433   5.7820   6.3432   9.2081  11.0250
    12.2788  13.4260

          k =-0.0312-0.5938 0.0312 (  5101 PWs)   bands (ev):

   -16.9725 -16.9718 -16.9505 -16.8796 -16.8440 -16.8299 -16.7651 -16.7226
   -16.7050 -16.7041  -3.2225   2.2454   5.5362   5.5720   8.6954  10.0981
    14.0909  14.1958

          k =-0.0938-0.5312-0.0312 (  5098 PWs)   bands (ev):

   -16.9720 -16.9698 -16.9503 -16.8868 -16.8559 -16.8163 -16.7586 -16.7241
   -16.7084 -16.7044  -3.4605   2.6929   5.6322   5.8305   9.0213  10.3808
    13.2557  13.6303

          k =-0.1562-0.4688-0.0938 (  5114 PWs)   bands (ev):

   -16.9738 -16.9678 -16.9461 -16.8925 -16.8684 -16.8009 -16.7547 -16.7314
   -16.7111 -16.7015  -3.6152   2.9118   5.7411   6.1588   9.5417  10.4997
    12.6546  12.9213

          k =-0.2188-0.4062-0.1562 (  5123 PWs)   bands (ev):

   -16.9737 -16.9670 -16.9424 -16.8953 -16.8796 -16.7848 -16.7549 -16.7389
   -16.7113 -16.7010  -3.6836   2.8542   6.0370   6.5323   9.3960  10.6923
    12.2310  12.9074

          k =-0.0312-0.4688 0.0312 (  5088 PWs)   bands (ev):

   -16.9672 -16.9662 -16.9559 -16.8939 -16.8659 -16.8056 -16.7517 -16.7181
   -16.7138 -16.7105  -3.7231   3.3048   5.9945   6.0184   9.0042  10.4682
    13.1040  13.1529

          k =-0.0938-0.4062-0.0312 (  5098 PWs)   bands (ev):

   -16.9673 -16.9641 -16.9532 -16.8995 -16.8767 -16.7928 -16.7474 -16.7245
   -16.7172 -16.7080  -3.9031   3.7199   6.1338   6.3722   9.3877  10.3803
    12.5822  12.5905

          k =-0.1562-0.3438-0.0938 (  5112 PWs)   bands (ev):

   -16.9686 -16.9630 -16.9481 -16.9021 -16.8868 -16.7789 -16.7483 -16.7326
   -16.7172 -16.7058  -3.9961   3.8190   6.3429   6.7698   9.5864  10.2493
    11.9948  12.4589

          k =-0.0312-0.3438 0.0312 (  5092 PWs)   bands (ev):

   -16.9623 -16.9605 -16.9567 -16.9054 -16.8862 -16.7824 -16.7413 -16.7239
   -16.7224 -16.7114  -4.1104   4.3896   6.5466   6.5538   9.4174  10.2525
    12.1471  12.1706

          k =-0.0938-0.2812-0.0312 (  5088 PWs)   bands (ev):

   -16.9629 -16.9587 -16.9526 -16.9087 -16.8953 -16.7709 -16.7412 -16.7285
   -16.7242 -16.7108  -4.2311   4.7518   6.7076   6.9938   9.7052   9.8755
    11.6081  11.8752

          k =-0.0312-0.2188 0.0312 (  5080 PWs)   bands (ev):

   -16.9582 -16.9557 -16.9540 -16.9136 -16.9036 -16.7615 -16.7355 -16.7309
   -16.7279 -16.7146  -4.3808   5.4890   7.1344   7.1489   9.4564   9.8829
    11.2327  11.2706

          k =-0.0938 0.0938 0.0938 (  5083 PWs)   bands (ev):

   -16.9560 -16.9560 -16.9502 -16.9139 -16.9139 -16.7441 -16.7441 -16.7375
   -16.7204 -16.7204  -4.4715   5.9287   7.6092   7.6092   8.5569  10.5897
    10.5897  10.7662

          k =-0.1562 0.1562 0.0312 (  5077 PWs)   bands (ev):

   -16.9606 -16.9561 -16.9503 -16.9118 -16.9071 -16.7528 -16.7473 -16.7315
   -16.7242 -16.7138  -4.3814   5.3608   7.0495   7.6494   8.9093  10.5631
    10.6461  11.4064

          k =-0.2188 0.2188-0.0312 (  5090 PWs)   bands (ev):

   -16.9657 -16.9599 -16.9478 -16.9064 -16.8986 -16.7612 -16.7534 -16.7296
   -16.7229 -16.7081  -4.2031   4.5142   6.4938   7.5155   9.1529  10.7619
    10.8843  12.1180

          k =-0.2812 0.2812-0.0938 (  5120 PWs)   bands (ev):

   -16.9701 -16.9653 -16.9430 -16.9002 -16.8901 -16.7686 -16.7588 -16.7365
   -16.7149 -16.7036  -3.9414   3.5440   6.0959   7.2759   9.1132  11.0725
    11.3257  12.7268

          k =-0.3438 0.3438-0.1562 (  5110 PWs)   bands (ev):

   -16.9732 -16.9703 -16.9376 -16.8944 -16.8830 -16.7741 -16.7628 -16.7445
   -16.7081 -16.7005  -3.6065   2.5739   5.8216   7.0053   8.9723  11.3630
    11.6184  13.3870

          k =-0.4062 0.4062-0.2188 (  5113 PWs)   bands (ev):

   -16.9750 -16.9744 -16.9324 -16.8895 -16.8783 -16.7770 -16.7652 -16.7528
   -16.7025 -16.6987  -3.2207   1.6834   5.6470   6.7499   8.8347  11.5656
    11.6457  14.2123

          k =-0.4688 0.4688-0.2812 (  5121 PWs)   bands (ev):

   -16.9774 -16.9755 -16.9286 -16.8851 -16.8765 -16.7772 -16.7669 -16.7600
   -16.6984 -16.6981  -2.8347   0.9503   5.5611   6.5353   8.7385  11.5463
    11.6959  14.9709

          k = 0.4688-0.4688 0.6562 (  5124 PWs)   bands (ev):

   -16.9792 -16.9752 -16.9270 -16.8813 -16.8772 -16.7751 -16.7717 -16.7615
   -16.6988 -16.6958  -2.5619   0.5008   5.5577   6.3761   8.6981  11.4278
    11.8013  15.2337

          k = 0.4062-0.4062 0.5938 (  5122 PWs)   bands (ev):

   -16.9799 -16.9741 -16.9280 -16.8797 -16.8782 -16.7776 -16.7716 -16.7587
   -16.7004 -16.6947  -2.5609   0.4989   5.6317   6.2813   8.7186  11.3301
    11.9127  15.1099

          k = 0.3438-0.3438 0.5312 (  5120 PWs)   bands (ev):

   -16.9793 -16.9724 -16.9311 -16.8834 -16.8765 -16.7819 -16.7672 -16.7539
   -16.7028 -16.6952  -2.8325   0.9459   5.7781   6.2563   8.8004  11.2473
    12.0301  14.6029

          k = 0.2812-0.2812 0.4688 (  5119 PWs)   bands (ev):

   -16.9774 -16.9702 -16.9358 -16.8881 -16.8773 -16.7835 -16.7622 -16.7480
   -16.7060 -16.6972  -3.2184   1.6788   5.9908   6.3036   8.9393  11.1292
    12.1207  13.8688

          k = 0.2188-0.2188 0.4062 (  5118 PWs)   bands (ev):

   -16.9742 -16.9674 -16.9412 -16.8939 -16.8809 -16.7819 -16.7565 -16.7418
   -16.7101 -16.7005  -3.6045   2.5732   6.2604   6.4228   9.1246  10.8897
    12.1206  13.2104

          k = 0.1562-0.1562 0.3438 (  5118 PWs)   bands (ev):

   -16.9697 -16.9638 -16.9464 -16.9005 -16.8872 -16.7772 -16.7501 -16.7362
   -16.7150 -16.7049  -3.9398   3.5572   6.5694   6.6097   9.3324  10.5002
    11.9630  12.6224

          k = 0.0938-0.0938 0.2812 (  5095 PWs)   bands (ev):

   -16.9641 -16.9596 -16.9509 -16.9076 -16.8952 -16.7701 -16.7430 -16.7321
   -16.7210 -16.7100  -4.2020   4.5666   6.8540   6.8820   9.5065  10.0827
    11.6420  11.9458

          k =-0.0938 0.2188 0.0938 (  5083 PWs)   bands (ev):

   -16.9615 -16.9579 -16.9504 -16.9105 -16.9028 -16.7603 -16.7427 -16.7347
   -16.7214 -16.7127  -4.3215   5.0462   7.1334   7.2224   9.1258  10.2681
    11.2315  11.5262

          k =-0.1562 0.2812 0.0312 (  5094 PWs)   bands (ev):

   -16.9656 -16.9603 -16.9493 -16.9065 -16.8947 -16.7695 -16.7472 -16.7293
   -16.7226 -16.7083  -4.1727   4.4499   6.4776   7.1976   9.5086  10.1867
    11.4766  12.1344

          k =-0.2188 0.3438-0.0312 (  5114 PWs)   bands (ev):

   -16.9703 -16.9652 -16.9445 -16.9007 -16.8859 -16.7779 -16.7534 -16.7332
   -16.7164 -16.7035  -3.9385   3.6610   5.9151   7.0506   9.6618  10.4045
    11.8183  12.5726

          k =-0.2812 0.4062-0.0938 (  5114 PWs)   bands (ev):

   -16.9745 -16.9703 -16.9378 -16.8947 -16.8780 -16.7843 -16.7589 -16.7418
   -16.7087 -16.6994  -3.6270   2.7807   5.5255   6.8130   9.5673  10.8313
    12.1411  12.8672

          k =-0.3438 0.4688-0.1562 (  5120 PWs)   bands (ev):

   -16.9783 -16.9740 -16.9308 -16.8890 -16.8724 -16.7880 -16.7633 -16.7515
   -16.7025 -16.6961  -3.2547   1.9126   5.2723   6.5634   9.4236  11.1580
    12.2425  13.3956

          k =-0.4062 0.5312-0.2188 (  5122 PWs)   bands (ev):

   -16.9815 -16.9760 -16.9249 -16.8837 -16.8699 -16.7882 -16.7673 -16.7604
   -16.6986 -16.6932  -2.8593   1.1463   5.1247   6.3490   9.3029  11.2790
    12.2531  14.1670

          k = 0.5312-0.4062 0.7188 (  5120 PWs)   bands (ev):

   -16.9836 -16.9767 -16.9214 -16.8787 -16.8705 -16.7855 -16.7738 -16.7641
   -16.6971 -16.6910  -2.5287   0.5962   5.0634   6.1970   9.2297  11.2817
    12.2646  14.9634

          k = 0.4688-0.3438 0.6562 (  5126 PWs)   bands (ev):

   -16.9843 -16.9765 -16.9210 -16.8760 -16.8717 -16.7846 -16.7770 -16.7635
   -16.6973 -16.6902  -2.4229   0.4341   5.0756   6.1244   9.2139  11.2559
    12.2983  15.1501

          k = 0.4062-0.2812 0.5938 (  5118 PWs)   bands (ev):

   -16.9835 -16.9755 -16.9238 -16.8792 -16.8699 -16.7894 -16.7717 -16.7600
   -16.6988 -16.6910  -2.6207   0.7418   5.1530   6.1404   9.2583  11.2244
    12.3545  14.4794

          k = 0.3438-0.2188 0.5312 (  5120 PWs)   bands (ev):

   -16.9812 -16.9738 -16.9291 -16.8842 -16.8695 -16.7922 -16.7658 -16.7535
   -16.7017 -16.6934  -2.9872   1.3796   5.2931   6.2446   9.3601  11.1428
    12.4101  13.6738

          k = 0.2812-0.1562 0.4688 (  5116 PWs)   bands (ev):

   -16.9776 -16.9712 -16.9358 -16.8900 -16.8724 -16.7914 -16.7602 -16.7451
   -16.7060 -16.6970  -3.3815   2.1933   5.5015   6.4247   9.5089  10.9055
    12.4233  13.0627

          k = 0.2188-0.0938 0.4062 (  5120 PWs)   bands (ev):

   -16.9730 -16.9675 -16.9428 -16.8963 -16.8784 -16.7870 -16.7542 -16.7366
   -16.7120 -16.7014  -3.7368   3.0873   5.7922   6.6511   9.6797  10.4802
    12.3088  12.6972

          k = 0.1562-0.0312 0.3438 (  5113 PWs)   bands (ev):

   -16.9679 -16.9629 -16.9489 -16.9029 -16.8864 -16.7799 -16.7477 -16.7297
   -16.7192 -16.7063  -4.0243   3.9774   6.1872   6.8686   9.8192  10.0306
    11.9725  12.4011

          k =-0.0938 0.3438 0.0938 (  5101 PWs)   bands (ev):

   -16.9667 -16.9617 -16.9513 -16.9037 -16.8866 -16.7806 -16.7449 -16.7295
   -16.7192 -16.7079  -4.0531   4.0800   6.5344   6.5742   9.6577  10.0994
    12.0835  12.3046

          k =-0.1562 0.4062 0.0312 (  5108 PWs)   bands (ev):

   -16.9701 -16.9658 -16.9483 -16.8983 -16.8773 -16.7908 -16.7500 -16.7298
   -16.7151 -16.7046  -3.8471   3.5016   5.9105   6.5370   9.7122  10.2473
    12.4904  12.5503

          k =-0.2188 0.4688-0.0312 (  5117 PWs)   bands (ev):

   -16.9745 -16.9711 -16.9410 -16.8919 -16.8686 -16.7992 -16.7566 -16.7371
   -16.7079 -16.6999  -3.5606   2.7891   5.3921   6.3732   9.9384  10.3639
    12.5145  12.9154

          k =-0.2812 0.5312-0.0938 (  5120 PWs)   bands (ev):

   -16.9799 -16.9749 -16.9321 -16.8854 -16.8618 -16.8046 -16.7633 -16.7471
   -16.7016 -16.6948  -3.2061   2.0195   5.0153   6.1537   9.9279  10.7904
    12.4663  13.2275

          k =-0.3438 0.5938-0.1562 (  5130 PWs)   bands (ev):

   -16.9847 -16.9772 -16.9234 -16.8790 -16.8584 -16.8062 -16.7701 -16.7569
   -16.6975 -16.6898  -2.8111   1.2811   4.7570   5.9610   9.8367  11.1432
    12.6850  13.4394

          k = 0.5938-0.3438 0.7812 (  5122 PWs)   bands (ev):

   -16.9880 -16.9786 -16.9166 -16.8732 -16.8587 -16.8036 -16.7779 -16.7640
   -16.6950 -16.6862  -2.4412   0.6815   4.5917   5.8414   9.7721  11.2323
    12.9716  13.9167

          k = 0.5312-0.2812 0.7188 (  5132 PWs)   bands (ev):

   -16.9893 -16.9794 -16.9131 -16.8696 -16.8607 -16.7992 -16.7841 -16.7673
   -16.6938 -16.6847  -2.2399   0.3863   4.5058   5.8161   9.7550  11.2309
    13.0167  14.6974

          k = 0.4688-0.2188 0.6562 (  5124 PWs)   bands (ev):

   -16.9886 -16.9795 -16.9135 -16.8725 -16.8599 -16.7993 -16.7811 -16.7677
   -16.6937 -16.6856  -2.3497   0.5455   4.4986   5.8883   9.7880  11.2321
    12.9607  14.4366

          k = 0.4062-0.1562 0.5938 (  5128 PWs)   bands (ev):

   -16.9859 -16.9789 -16.9180 -16.8786 -16.8595 -16.8016 -16.7720 -16.7647
   -16.6949 -16.6888  -2.6855   1.0685   4.5815   6.0473   9.8662  11.2097
    12.7952  13.6786

          k = 0.3438-0.0938 0.5312 (  5123 PWs)   bands (ev):

   -16.9814 -16.9774 -16.9256 -16.8849 -16.8625 -16.8006 -16.7653 -16.7557
   -16.6980 -16.6933  -3.0822   1.7694   4.7769   6.2701   9.9770  11.0100
    12.5516  13.1966

          k = 0.2812-0.0312 0.4688 (  5119 PWs)   bands (ev):

   -16.9763 -16.9740 -16.9346 -16.8909 -16.8690 -16.7958 -16.7599 -16.7445
   -16.7044 -16.6975  -3.4535   2.5206   5.1186   6.5161  10.0864  10.5485
    12.5142  12.7926

          k = 0.2188 0.0312 0.4062 (  5118 PWs)   bands (ev):

   -16.9724 -16.9681 -16.9429 -16.8968 -16.8776 -16.7883 -16.7540 -16.7354
   -16.7122 -16.7016  -3.7635   3.2259   5.6429   6.7150   9.9520  10.2480
    12.3546  12.5874

          k =-0.0938 0.4688 0.0938 (  5104 PWs)   bands (ev):

   -16.9717 -16.9667 -16.9501 -16.8932 -16.8672 -16.8032 -16.7532 -16.7264
   -16.7126 -16.7042  -3.6689   3.0996   5.8872   6.0526   9.3227  10.4807
    12.7960  13.0186

          k =-0.1562 0.5312 0.0312 (  5103 PWs)   bands (ev):

   -16.9745 -16.9715 -16.9450 -16.8865 -16.8573 -16.8138 -16.7597 -16.7309
   -16.7064 -16.7009  -3.4084   2.5473   5.4211   5.9248   9.3552  10.4614
    12.8432  13.5667

          k =-0.2188 0.5938-0.0312 (  5117 PWs)   bands (ev):

   -16.9790 -16.9766 -16.9354 -16.8793 -16.8490 -16.8218 -16.7672 -16.7410
   -16.6995 -16.6957  -3.0746   1.9134   4.9702   5.7375   9.6448  10.5292
    12.6578  14.0432

          k =-0.2812 0.6562-0.0938 (  5127 PWs)   bands (ev):

   -16.9852 -16.9790 -16.9243 -16.8720 -16.8440 -16.8256 -16.7753 -16.7526
   -16.6953 -16.6891  -2.6876   1.2613   4.5965   5.5560   9.7938  11.0124
    12.4681  14.2455

          k = 0.6562-0.2812 0.8438 (  5129 PWs)   bands (ev):

   -16.9900 -16.9807 -16.9143 -16.8652 -16.8437 -16.8240 -16.7839 -16.7628
   -16.6926 -16.6837  -2.2945   0.6740   4.3050   5.4547   9.8226  11.6171
    12.5431  14.2365

          k = 0.5938-0.2188 0.7812 (  5129 PWs)   bands (ev):

   -16.9928 -16.9819 -16.9075 -16.8602 -16.8462 -16.8190 -16.7918 -16.7694
   -16.6909 -16.6806  -2.0136   0.2944   4.1039   5.4575   9.8700  11.7416
    13.2715  14.1294

          k = 0.5312-0.1562 0.7188 (  5128 PWs)   bands (ev):

   -16.9932 -16.9825 -16.9050 -16.8616 -16.8477 -16.8135 -16.7943 -16.7720
   -16.6901 -16.6804  -2.0291   0.3166   4.0088   5.5620   9.9639  11.6924
    13.6294  14.2452

          k = 0.4688-0.0938 0.6562 (  5132 PWs)   bands (ev):

   -16.9910 -16.9824 -16.9074 -16.8696 -16.8484 -16.8117 -16.7859 -16.7713
   -16.6903 -16.6832  -2.3262   0.7182   4.0438   5.7531  10.0926  11.6261
    13.0101  14.1202

          k = 0.4062-0.0312 0.5938 (  5130 PWs)   bands (ev):

   -16.9865 -16.9814 -16.9145 -16.8782 -16.8528 -16.8088 -16.7725 -16.7678
   -16.6916 -16.6887  -2.7199   1.2869   4.2429   6.0052  10.2132  11.3891
    12.4760  13.7633

          k = 0.3438 0.0312 0.5312 (  5127 PWs)   bands (ev):

   -16.9808 -16.9789 -16.9247 -16.8850 -16.8607 -16.8026 -16.7652 -16.7564
   -16.6965 -16.6940  -3.1020   1.8723   4.6442   6.2748  10.1885  10.9328
    12.4367  13.2564

          k = 0.2812 0.0938 0.4688 (  5118 PWs)   bands (ev):

   -16.9771 -16.9726 -16.9351 -16.8906 -16.8702 -16.7943 -16.7600 -16.7446
   -16.7051 -16.6972  -3.4294   2.3994   5.2604   6.4852   9.8170  10.7415
    12.5175  12.8394

          k =-0.0938 0.5938 0.0938 (  5108 PWs)   bands (ev):

   -16.9766 -16.9720 -16.9450 -16.8794 -16.8461 -16.8268 -16.7658 -16.7295
   -16.7045 -16.6990  -3.1732   2.1211   5.3502   5.6151   9.0019  10.2944
    13.4894  13.9859

          k =-0.1562 0.6562 0.0312 (  5119 PWs)   bands (ev):

   -16.9789 -16.9767 -16.9379 -16.8716 -16.8378 -16.8357 -16.7735 -16.7369
   -16.6984 -16.6957  -2.8618   1.5979   5.0379   5.4243   9.0949  10.1389
    13.5601  14.6505

          k =-0.2188 0.7188-0.0312 (  5124 PWs)   bands (ev):

   -16.9833 -16.9810 -16.9262 -16.8636 -16.8447 -16.8282 -16.7821 -16.7491
   -16.6928 -16.6905  -2.4882   1.0393   4.6693   5.2204   9.4361  10.2415
    13.3523  15.1330

          k = 0.7188-0.2188 0.9062 (  5129 PWs)   bands (ev):

   -16.9893 -16.9826 -16.9137 -16.8559 -16.8475 -16.8240 -16.7912 -16.7618
   -16.6903 -16.6838  -2.0850   0.5028   4.2874   5.1133   9.5987  10.8938
    13.1161  15.1810

          k = 0.6562-0.1562 0.8438 (  5130 PWs)   bands (ev):

   -16.9937 -16.9837 -16.9040 -16.8500 -16.8432 -16.8256 -16.8001 -16.7712
   -16.6886 -16.6792  -1.7432   0.0911   3.9668   5.1267   9.6845  11.8645
    12.9356  14.8443

          k = 0.5938-0.0938 0.7812 (  5124 PWs)   bands (ev):

   -16.9956 -16.9843 -16.8997 -16.8480 -16.8343 -16.8313 -16.8058 -16.7751
   -16.6878 -16.6774  -1.6715   0.0130   3.7709   5.2463   9.8102  12.5510
    13.2285  14.0608

          k = 0.5312-0.0312 0.7188 (  5134 PWs)   bands (ev):

   -16.9948 -16.9841 -16.9005 -16.8565 -16.8376 -16.8232 -16.8016 -16.7748
   -16.6881 -16.6786  -1.9355   0.3192   3.7466   5.4543   9.9787  12.4693
    13.1069  14.2346

          k = 0.4688 0.0312 0.6562 (  5136 PWs)   bands (ev):

   -16.9914 -16.9830 -16.9060 -16.8689 -16.8452 -16.8150 -16.7873 -16.7721
   -16.6895 -16.6828  -2.3235   0.7683   3.9360   5.7259  10.1347  11.9061
    12.7028  14.2621

          k = 0.4062 0.0938 0.5938 (  5133 PWs)   bands (ev):

   -16.9864 -16.9805 -16.9157 -16.8783 -16.8552 -16.8061 -16.7723 -16.7667
   -16.6929 -16.6886  -2.7080   1.2064   4.3643   6.0195  10.0936  11.2853
    12.6871  13.6492

          k = 0.3438 0.1562 0.5312 (  5120 PWs)   bands (ev):

   -16.9816 -16.9755 -16.9272 -16.8846 -16.8657 -16.7969 -16.7654 -16.7546
   -16.6999 -16.6931  -3.0435   1.5932   5.0087   6.2600   9.6778  11.0853
    12.5705  13.3065

          k =-0.0938 0.7188 0.0938 (  5118 PWs)   bands (ev):

   -16.9810 -16.9767 -16.9357 -16.8632 -16.8508 -16.8240 -16.7812 -16.7390
   -16.6972 -16.6929  -2.5722   1.1568   4.9471   5.2831   8.7888   9.8447
    14.4569  14.9548

          k =-0.1562 0.7812 0.0312 (  5126 PWs)   bands (ev):

   -16.9827 -16.9806 -16.9267 -16.8608 -16.8545 -16.8142 -16.7899 -16.7484
   -16.6923 -16.6903  -2.2151   0.6659   4.7732   5.0615   8.9576   9.6990
    14.4984  15.6655

          k = 0.7812-0.1562 0.9688 (  5129 PWs)   bands (ev):

   -16.9864 -16.9840 -16.9134 -16.8667 -16.8459 -16.8076 -16.7993 -16.7617
   -16.6882 -16.6860  -1.8119   0.1774   4.4964   4.8584   9.3398   9.9008
    14.2756  15.9257

          k = 0.7188-0.0938 0.9062 (  5130 PWs)   bands (ev):

   -16.9918 -16.9849 -16.9012 -16.8659 -16.8379 -16.8093 -16.8066 -16.7736
   -16.6869 -16.6806  -1.4268  -0.2395   4.1060   4.8627   9.4768  10.7343
    14.0370  15.3513

          k = 0.6562-0.0312 0.8438 (  5125 PWs)   bands (ev):

   -16.9953 -16.9852 -16.8965 -16.8544 -16.8340 -16.8171 -16.8145 -16.7779
   -16.6865 -16.6772  -1.3044  -0.3543   3.8066   4.9881   9.6088  11.8335
    13.8263  14.2998

          k = 0.5938 0.0312 0.7812 (  5124 PWs)   bands (ev):

   -16.9962 -16.9848 -16.8977 -16.8436 -16.8365 -16.8290 -16.8108 -16.7767
   -16.6871 -16.6767  -1.5852  -0.0569   3.6978   5.2047   9.7916  12.8724
    13.3278  13.6760

          k = 0.5312 0.0938 0.7188 (  5129 PWs)   bands (ev):

   -16.9943 -16.9836 -16.9021 -16.8584 -16.8417 -16.8194 -16.7988 -16.7738
   -16.6888 -16.6792  -1.9668   0.3152   3.8380   5.4901   9.9785  12.0741
    13.4844  14.1856

          k = 0.4688 0.1562 0.6562 (  5134 PWs)   bands (ev):

   -16.9900 -16.9811 -16.9101 -16.8709 -16.8537 -16.8061 -16.7836 -16.7698
   -16.6918 -16.6841  -2.3338   0.6355   4.2408   5.8072   9.9849  11.3724
    13.1625  14.1121

          k = 0.4062 0.2188 0.5938 (  5116 PWs)   bands (ev):

   -16.9849 -16.9772 -16.9209 -16.8789 -16.8646 -16.7958 -16.7718 -16.7622
   -16.6970 -16.6896  -2.6551   0.9045   4.8574   6.0878   9.5723  11.1956
    12.6199  14.0237

          k =-0.0938 0.8438 0.0938 (  5128 PWs)   bands (ev):

   -16.9841 -16.9800 -16.9224 -16.8735 -16.8453 -16.8022 -16.7986 -16.7530
   -16.6920 -16.6882  -1.8745   0.2228   4.6877   5.0675   8.6902   9.4481
    15.4844  15.8596

          k = 0.8438-0.0938 1.0312 (  5124 PWs)   bands (ev):

   -16.9850 -16.9829 -16.9117 -16.8826 -16.8362 -16.8079 -16.7930 -16.7639
   -16.6886 -16.6868  -1.4788  -0.2319   4.6295   4.8520   8.9413   9.3595
    15.4727  16.2976

          k = 0.7812-0.0312 0.9688 (  5124 PWs)   bands (ev):

   -16.9878 -16.9855 -16.8977 -16.8863 -16.8273 -16.8177 -16.7884 -16.7774
   -16.6861 -16.6839  -1.0645  -0.6506   4.4379   4.6847   9.3293   9.7072
    15.2416  15.6701

          k = 0.7188 0.0312 0.9062 (  5124 PWs)   bands (ev):

   -16.9923 -16.9854 -16.8963 -16.8719 -16.8294 -16.8175 -16.8011 -16.7784
   -16.6862 -16.6799  -1.1239  -0.5591   4.0686   4.8125   9.4516  10.6978
    14.5231  14.9873

          k = 0.6562 0.0938 0.8438 (  5121 PWs)   bands (ev):

   -16.9948 -16.9847 -16.8994 -16.8510 -16.8401 -16.8204 -16.8082 -16.7753
   -16.6872 -16.6779  -1.4867  -0.1703   3.8611   5.0340   9.6349  11.8501
    13.3589  14.6962

          k = 0.5938 0.1562 0.7812 (  5128 PWs)   bands (ev):

   -16.9945 -16.9833 -16.9031 -16.8537 -16.8399 -16.8258 -16.7990 -16.7725
   -16.6891 -16.6787  -1.8228   0.1360   3.9103   5.3303   9.8415  12.1346
    13.2449  14.2513

          k = 0.5312 0.2188 0.7188 (  5133 PWs)   bands (ev):

   -16.9915 -16.9810 -16.9088 -16.8654 -16.8544 -16.8065 -16.7893 -16.7697
   -16.6919 -16.6823  -2.1214   0.3365   4.2391   5.6707   9.9026  11.3957
    13.3838  14.4941

          k = 0.4688 0.2812 0.6562 (  5123 PWs)   bands (ev):

   -16.9867 -16.9779 -16.9173 -16.8742 -16.8662 -16.7920 -16.7789 -16.7654
   -16.6957 -16.6877  -2.3783   0.4723   4.7868   5.9953   9.5165  11.2055
    12.6313  14.8480

          k =-0.0938-1.0312 0.0938 (  5117 PWs)   bands (ev):

   -16.9855 -16.9815 -16.9068 -16.8933 -16.8267 -16.8170 -16.7826 -16.7694
   -16.6896 -16.6860  -1.0980  -0.6565   4.5761   4.9742   8.6736   9.2412
    16.2672  16.4450

          k =-0.1562-0.9688 0.0312 (  5116 PWs)   bands (ev):

   -16.9855 -16.9834 -16.9033 -16.8924 -16.8268 -16.8172 -16.7833 -16.7725
   -16.6879 -16.6860  -1.0828  -0.6605   4.6014   4.8091   8.9583   9.2693
    15.9092  16.2304

          k =-0.2188-0.9062-0.0312 (  5124 PWs)   bands (ev):

   -16.9873 -16.9850 -16.9057 -16.8770 -16.8367 -16.8084 -16.7976 -16.7694
   -16.6868 -16.6846  -1.4449  -0.2433   4.4552   4.7450   9.3284   9.7771
    14.7633  15.9485

          k =-0.2812-0.8438-0.0938 (  5132 PWs)   bands (ev):

   -16.9908 -16.9839 -16.9075 -16.8573 -16.8469 -16.8152 -16.7999 -16.7676
   -16.6883 -16.6819  -1.7594   0.1266   4.1795   4.9631   9.5264  10.8032
    13.5607  15.4404

          k =-0.3438-0.7812-0.1562 (  5131 PWs)   bands (ev):

   -16.9921 -16.9823 -16.9092 -16.8574 -16.8396 -16.8292 -16.7919 -16.7668
   -16.6904 -16.6812  -2.0191   0.3778   4.1175   5.2668   9.7515  11.8143
    12.6326  14.6298

          k =-0.4062-0.7188-0.2188 (  5127 PWs)   bands (ev):

   -16.9906 -16.9803 -16.9121 -16.8668 -16.8525 -16.8115 -16.7847 -16.7664
   -16.6930 -16.6832  -2.2243   0.4777   4.3362   5.6286   9.8632  11.4231
    13.2146  13.9396

          k =-0.0938-0.9062 0.0938 (  5121 PWs)   bands (ev):

   -16.9850 -16.9810 -16.9146 -16.8841 -16.8360 -16.8077 -16.7918 -16.7613
   -16.6904 -16.6868  -1.4935  -0.2266   4.6133   5.0054   8.6759   9.3140
    15.9477  16.2238

          k =-0.1562-0.8438 0.0312 (  5128 PWs)   bands (ev):

   -16.9841 -16.9820 -16.9196 -16.8719 -16.8455 -16.8035 -16.7988 -16.7557
   -16.6901 -16.6882  -1.8574   0.2115   4.6864   4.9367   8.9361   9.5093
    14.9905  16.0728

          k =-0.2188-0.7812-0.0312 (  5126 PWs)   bands (ev):

   -16.9850 -16.9827 -16.9202 -16.8559 -16.8549 -16.8178 -16.7905 -16.7549
   -16.6903 -16.6880  -2.1604   0.6059   4.5670   5.0183   9.3742  10.0615
    13.7996  15.6049

          k =-0.2812-0.7188-0.0938 (  5123 PWs)   bands (ev):

   -16.9875 -16.9809 -16.9194 -16.8642 -16.8390 -16.8317 -16.7830 -16.7567
   -16.6926 -16.6863  -2.3956   0.8819   4.4272   5.3120   9.6903  10.9808
    12.7332  14.7434

          k =-0.3438-0.6562-0.1562 (  5126 PWs)   bands (ev):

   -16.9875 -16.9789 -16.9191 -16.8725 -16.8509 -16.8154 -16.7766 -16.7595
   -16.6950 -16.6866  -2.5603   0.9752   4.5206   5.6883   9.8690  11.3475
    12.6070  13.8084

          k =-0.0938-0.7812 0.0938 (  5121 PWs)   bands (ev):

   -16.9827 -16.9785 -16.9295 -16.8623 -16.8544 -16.8130 -16.7897 -16.7455
   -16.6943 -16.6903  -2.2347   0.6848   4.7991   5.1603   8.7260   9.6296
    14.9745  15.4235

          k =-0.1562-0.7188 0.0312 (  5129 PWs)   bands (ev):

   -16.9810 -16.9788 -16.9328 -16.8633 -16.8492 -16.8250 -16.7815 -16.7420
   -16.6951 -16.6929  -2.5504   1.1288   4.8903   5.2246   9.0103   9.9149
    14.0158  15.1757

          k =-0.2188-0.6562-0.0312 (  5122 PWs)   bands (ev):

   -16.9812 -16.9789 -16.9313 -16.8718 -16.8388 -16.8331 -16.7743 -16.7444
   -16.6959 -16.6932  -2.7934   1.4757   4.8040   5.4614   9.5267  10.4137
    12.9577  14.6003

          k =-0.2812-0.5938-0.0938 (  5123 PWs)   bands (ev):

   -16.9826 -16.9770 -16.9286 -16.8792 -16.8529 -16.8152 -16.7686 -16.7495
   -16.6983 -16.6920  -2.9584   1.6404   4.7933   5.8395   9.8901  10.9326
    12.3860  13.7318

          k =-0.0938-0.6562 0.0938 (  5116 PWs)   bands (ev):

   -16.9789 -16.9745 -16.9409 -16.8716 -16.8393 -16.8347 -16.7732 -16.7336
   -16.7007 -16.6959  -2.8854   1.6362   5.1311   5.4351   8.8807  10.0758
    13.9542  14.4725

          k =-0.1562-0.5938 0.0312 (  5113 PWs)   bands (ev):

   -16.9768 -16.9742 -16.9419 -16.8794 -16.8468 -16.8256 -16.7662 -16.7332
   -16.7022 -16.6984  -3.1481   2.0713   5.2152   5.6586   9.2105  10.3394
    13.1564  14.1107

          k =-0.2188-0.5312-0.0312 (  5116 PWs)   bands (ev):

   -16.9767 -16.9740 -16.9386 -16.8860 -16.8590 -16.8104 -16.7612 -16.7387
   -16.7035 -16.6979  -3.3307   2.3514   5.1669   6.0438   9.7868  10.5204
    12.5081  13.4782

          k =-0.0938-0.5312 0.0938 (  5101 PWs)   bands (ev):

   -16.9742 -16.9694 -16.9481 -16.8866 -16.8568 -16.8149 -16.7591 -16.7271
   -16.7086 -16.7018  -3.4347   2.6094   5.6030   5.8216   9.1505  10.4520
    13.0937  13.5001

          k =-0.1562-0.4688 0.0312 (  5110 PWs)   bands (ev):

   -16.9723 -16.9687 -16.9470 -16.8928 -16.8676 -16.8022 -16.7541 -16.7300
   -16.7108 -16.7029  -3.6416   3.0244   5.6538   6.2195   9.5253  10.4374
    12.6542  13.0252

          k =-0.0938-0.4062 0.0938 (  5103 PWs)   bands (ev):

   -16.9692 -16.9641 -16.9511 -16.8989 -16.8772 -16.7917 -16.7484 -16.7273
   -16.7163 -16.7061  -3.8752   3.5903   6.1995   6.3049   9.5082  10.3399
    12.5448  12.5683

          k =-0.1562 0.1562 0.1562 (  5077 PWs)   bands (ev):

   -16.9609 -16.9609 -16.9481 -16.9063 -16.9063 -16.7512 -16.7512 -16.7399
   -16.7148 -16.7148  -4.2926   4.7855   7.3579   7.3579   8.5806  10.9270
    10.9270  11.5847

          k =-0.2188 0.2188 0.0938 (  5093 PWs)   bands (ev):

   -16.9656 -16.9611 -16.9472 -16.9051 -16.8987 -16.7605 -16.7533 -16.7351
   -16.7182 -16.7085  -4.1742   4.3235   6.6777   7.4346   8.9144  10.8526
    11.0752  12.1505

          k =-0.2812 0.2812 0.0312 (  5112 PWs)   bands (ev):

   -16.9703 -16.9650 -16.9430 -16.9011 -16.8895 -16.7695 -16.7591 -16.7337
   -16.7168 -16.7032  -3.9691   3.7096   5.9136   7.3309   9.3538  11.0269
    11.1815  12.6264

          k =-0.3438 0.3438-0.0312 (  5108 PWs)   bands (ev):

   -16.9742 -16.9710 -16.9358 -16.8961 -16.8804 -16.7776 -16.7640 -16.7417
   -16.7090 -16.6990  -3.6834   2.9589   5.3515   7.0992   9.5225  11.3572
    11.5357  12.8287

          k =-0.4062 0.4062-0.0938 (  5113 PWs)   bands (ev):

   -16.9769 -16.9768 -16.9279 -16.8910 -16.8728 -16.7836 -16.7673 -16.7527
   -16.7010 -16.6963  -3.3298   2.1431   5.0009   6.8167   9.4819  11.7074
    11.8113  13.2107

          k =-0.4688 0.4688-0.1562 (  5123 PWs)   bands (ev):

   -16.9817 -16.9781 -16.9213 -16.8855 -16.8682 -16.7865 -16.7689 -16.7645
   -16.6949 -16.6945  -2.9359   1.3648   4.8138   6.5393   9.3847  11.7698
    11.9882  14.0166

          k = 0.4688-0.4688 0.7812 (  5122 PWs)   bands (ev):

   -16.9850 -16.9782 -16.9178 -16.8791 -16.8672 -16.7857 -16.7767 -16.7679
   -16.6949 -16.6901  -2.5671   0.7373   4.7533   6.2997   9.3030  11.6341
    12.1975  14.9205

          k = 0.4062-0.4062 0.7188 (  5126 PWs)   bands (ev):

   -16.9865 -16.9773 -16.9181 -16.8726 -16.8693 -16.7871 -16.7820 -16.7649
   -16.6961 -16.6879  -2.3629   0.4240   4.7987   6.1172   9.2651  11.5134
    12.3752  15.0872

          k = 0.3438-0.3438 0.6562 (  5130 PWs)   bands (ev):

   -16.9863 -16.9757 -16.9218 -16.8735 -16.8673 -16.7953 -16.7765 -16.7594
   -16.6983 -16.6880  -2.4636   0.5740   4.9376   6.0030   9.2824  11.4183
    12.5469  14.2748

          k = 0.2812-0.2812 0.5938 (  5120 PWs)   bands (ev):

   -16.9842 -16.9735 -16.9281 -16.8788 -16.8645 -16.8004 -16.7700 -16.7519
   -16.7016 -16.6902  -2.7934   1.1107   5.1609   5.9637   9.3553  11.2940
    12.7051  13.4290

          k = 0.2188-0.2188 0.5312 (  5117 PWs)   bands (ev):

   -16.9805 -16.9709 -16.9359 -16.8850 -16.8653 -16.8015 -16.7631 -16.7432
   -16.7057 -16.6942  -3.1895   1.8612   5.4590   6.0020   9.4680  11.0191
    12.8052  12.8793

          k = 0.1562-0.1562 0.4688 (  5117 PWs)   bands (ev):

   -16.9754 -16.9677 -16.9439 -16.8918 -16.8698 -16.7984 -16.7559 -16.7346
   -16.7106 -16.6998  -3.5627   2.7144   5.8163   6.1173   9.5626  10.6015
    12.6865  12.7718

          k =-0.1562 0.2812 0.1562 (  5094 PWs)   bands (ev):

   -16.9668 -16.9624 -16.9470 -16.9034 -16.8947 -16.7674 -16.7496 -16.7379
   -16.7156 -16.7077  -4.0863   3.9767   6.8695   6.9435   8.9958  10.6443
    11.5833  12.3512

          k =-0.2188 0.3438 0.0938 (  5115 PWs)   bands (ev):

   -16.9705 -16.9651 -16.9444 -16.9000 -16.8864 -16.7768 -16.7534 -16.7356
   -16.7150 -16.7036  -3.9109   3.5034   6.0846   6.9781   9.4155  10.5788
    11.8508  12.6657

          k =-0.2812 0.4062 0.0312 (  5117 PWs)   bands (ev):

   -16.9743 -16.9710 -16.9373 -16.8952 -16.8770 -16.7856 -16.7591 -16.7410
   -16.7087 -16.6992  -3.6526   2.9190   5.3630   6.8548   9.7980  10.7063
    12.1963  12.6887

          k =-0.3438 0.4688-0.0312 (  5114 PWs)   bands (ev):

   -16.9779 -16.9770 -16.9282 -16.8898 -16.8684 -16.7928 -16.7640 -16.7519
   -16.7005 -16.6957  -3.3211   2.2342   4.8527   6.6135   9.9037  11.0810
    12.5504  12.7381

          k =-0.4062 0.5312-0.0938 (  5124 PWs)   bands (ev):

   -16.9835 -16.9791 -16.9196 -16.8838 -16.8620 -16.7971 -16.7674 -16.7647
   -16.6947 -16.6920  -2.9366   1.5136   4.5497   6.3428   9.8271  11.4159
    12.6197  13.3214

          k = 0.5312-0.4062 0.8438 (  5133 PWs)   bands (ev):

   -16.9876 -16.9798 -16.9138 -16.8768 -16.8594 -16.7980 -16.7775 -16.7690
   -16.6932 -16.6872  -2.5462   0.8641   4.4105   6.0983   9.7182  11.5004
    12.7993  14.0993

          k = 0.4688-0.3438 0.7812 (  5125 PWs)   bands (ev):

   -16.9897 -16.9797 -16.9121 -16.8697 -16.8602 -16.7977 -16.7861 -16.7683
   -16.6933 -16.6845  -2.2617   0.4380   4.3983   5.9123   9.6325  11.4922
    12.9479  14.8115

          k = 0.4062-0.2812 0.7188 (  5129 PWs)   bands (ev):

   -16.9897 -16.9787 -16.9146 -16.8679 -16.8595 -16.8034 -16.7836 -16.7650
   -16.6946 -16.6843  -2.2541   0.4258   4.4895   5.8041   9.5919  11.4833
    13.0411  14.1921

          k = 0.3438-0.2188 0.6562 (  5129 PWs)   bands (ev):

   -16.9876 -16.9772 -16.9206 -16.8727 -16.8564 -16.8092 -16.7765 -16.7585
   -16.6969 -16.6865  -2.5303   0.8376   4.6681   5.7857   9.6028  11.4349
    12.9288  13.5134

          k = 0.2812-0.1562 0.5938 (  5124 PWs)   bands (ev):

   -16.9837 -16.9751 -16.9290 -16.8790 -16.8563 -16.8113 -16.7689 -16.7494
   -16.7002 -16.6908  -2.9200   1.4936   4.9234   5.8613   9.6519  11.1638
    12.5769  13.4027

          k = 0.2188-0.0938 0.5312 (  5117 PWs)   bands (ev):

   -16.9783 -16.9723 -16.9384 -16.8858 -16.8603 -16.8087 -16.7615 -16.7392
   -16.7048 -16.6967  -3.3069   2.2533   5.2511   6.0200   9.6722  10.6908
    12.5474  13.3076

          k =-0.1562 0.4062 0.1562 (  5120 PWs)   bands (ev):

   -16.9725 -16.9656 -16.9455 -16.8967 -16.8788 -16.7876 -16.7522 -16.7349
   -16.7133 -16.7024  -3.7651   3.1360   6.1860   6.3566   9.5527  10.4710
    12.3611  12.7089

          k =-0.2188 0.4688 0.0938 (  5114 PWs)   bands (ev):

   -16.9756 -16.9699 -16.9409 -16.8916 -16.8696 -16.7977 -16.7569 -16.7377
   -16.7085 -16.6991  -3.5352   2.6705   5.5128   6.3255   9.7572  10.5463
    12.5715  12.8342

          k =-0.2812 0.5312 0.0312 (  5119 PWs)   bands (ev):

   -16.9786 -16.9768 -16.9316 -16.8856 -16.8603 -16.8065 -16.7631 -16.7473
   -16.7001 -16.6957  -3.2283   2.1219   4.9014   6.1675  10.2231  10.5348
    12.3614  13.3713

          k =-0.3438 0.5938-0.0312 (  5123 PWs)   bands (ev):

   -16.9836 -16.9807 -16.9210 -16.8791 -16.8524 -16.8129 -16.7699 -16.7591
   -16.6932 -16.6915  -2.8592   1.5114   4.4679   5.9237  10.4482  10.8377
    12.2469  13.8630

          k = 0.5938-0.3438 0.9062 (  5134 PWs)   bands (ev):

   -16.9889 -16.9821 -16.9116 -16.8719 -16.8479 -16.8155 -16.7794 -16.7678
   -16.6911 -16.6854  -2.4611   0.9038   4.2098   5.6882  10.3546  11.2235
    12.5760  14.1394

          k = 0.5312-0.2812 0.8438 (  5129 PWs)   bands (ev):

   -16.9921 -16.9827 -16.9059 -16.8648 -16.8473 -16.8147 -16.7897 -16.7716
   -16.6902 -16.6816  -2.1170   0.4223   4.0960   5.5178  10.2706  11.2989
    13.3328  14.2425

          k = 0.4688-0.2188 0.7812 (  5133 PWs)   bands (ev):

   -16.9928 -16.9827 -16.9051 -16.8619 -16.8475 -16.8152 -16.7925 -16.7718
   -16.6901 -16.6807  -2.0000   0.2671   4.0970   5.4437  10.2099  11.3316
    13.6445  14.1750

          k = 0.4062-0.1562 0.7188 (  5129 PWs)   bands (ev):

   -16.9910 -16.9821 -16.9093 -16.8657 -16.8460 -16.8187 -16.7859 -16.7684
   -16.6910 -16.6827  -2.2073   0.5440   4.1970   5.4792  10.1832  11.3628
    12.8741  14.2250

          k = 0.3438-0.0938 0.6562 (  5126 PWs)   bands (ev):

   -16.9869 -16.9809 -16.9176 -16.8723 -16.8464 -16.8204 -16.7766 -16.7607
   -16.6929 -16.6873  -2.5825   1.0873   4.3974   5.6183  10.1878  11.1706
    12.2974  14.1895

          k = 0.2812-0.0312 0.5938 (  5111 PWs)   bands (ev):

   -16.9811 -16.9791 -16.9282 -16.8792 -16.8510 -16.8174 -16.7684 -16.7498
   -16.6963 -16.6935  -2.9779   1.7232   4.7145   5.8294  10.1377  10.6710
    12.3035  13.9590

          k =-0.1562 0.5312 0.1562 (  5122 PWs)   bands (ev):

   -16.9782 -16.9701 -16.9414 -16.8859 -16.8603 -16.8094 -16.7609 -16.7355
   -16.7073 -16.6970  -3.3335   2.2922   5.4721   5.8969   9.4495  10.7394
    12.7220  13.1920

          k =-0.2188 0.5938 0.0938 (  5119 PWs)   bands (ev):

   -16.9809 -16.9747 -16.9351 -16.8792 -16.8506 -16.8198 -16.7674 -16.7415
   -16.7012 -16.6939  -3.0528   1.8354   5.0106   5.7451   9.5417  10.7416
    12.6635  13.8024

          k =-0.2812 0.6562 0.0312 (  5122 PWs)   bands (ev):

   -16.9835 -16.9811 -16.9240 -16.8720 -16.8415 -16.8283 -16.7752 -16.7529
   -16.6931 -16.6909  -2.7037   1.3242   4.5602   5.5148  10.0289  10.7056
    12.4261  14.5349

          k = 0.6562-0.2812 0.9688 (  5129 PWs)   bands (ev):

   -16.9882 -16.9844 -16.9117 -16.8645 -16.8355 -16.8328 -16.7845 -16.7649
   -16.6888 -16.6856  -2.3089   0.7908   4.2214   5.2652  10.4817  10.9848
    12.2044  14.9833

          k = 0.5938-0.2188 0.9062 (  5135 PWs)   bands (ev):

   -16.9926 -16.9855 -16.9016 -16.8572 -16.8370 -16.8294 -16.7949 -16.7737
   -16.6872 -16.6806  -1.9258   0.3098   3.9996   5.0922  10.5597  11.5427
    12.3583  14.8055

          k = 0.5312-0.1562 0.8438 (  5126 PWs)   bands (ev):

   -16.9946 -16.9860 -16.8966 -16.8534 -16.8340 -16.8306 -16.8017 -16.7776
   -16.6865 -16.6784  -1.7078   0.0514   3.8874   5.0427  10.6311  11.5535
    13.2919  13.9195

          k = 0.4688-0.0938 0.7812 (  5133 PWs)   bands (ev):

   -16.9939 -16.9858 -16.8981 -16.8562 -16.8351 -16.8291 -16.7989 -16.7766
   -16.6867 -16.6792  -1.8386   0.2060   3.8896   5.1246  10.7226  11.4792
    12.8589  14.3656

          k = 0.4062-0.0312 0.7188 (  5137 PWs)   bands (ev):

   -16.9907 -16.9849 -16.9055 -16.8641 -16.8367 -16.8286 -16.7878 -16.7713
   -16.6879 -16.6830  -2.1957   0.6415   4.0273   5.3187  10.8097  11.2342
    12.1468  14.8503

          k = 0.3438 0.0312 0.6562 (  5124 PWs)   bands (ev):

   -16.9861 -16.9825 -16.9167 -16.8722 -16.8436 -16.8233 -16.7767 -16.7616
   -16.6909 -16.6885  -2.5942   1.1511   4.3263   5.5823  10.5337  10.8925
    12.1391  14.4557

          k =-0.1562 0.6562 0.1562 (  5117 PWs)   bands (ev):

   -16.9834 -16.9748 -16.9340 -16.8716 -16.8413 -16.8310 -16.7741 -16.7415
   -16.7001 -16.6911  -2.7983   1.4449   4.8880   5.5255   9.1636  10.6576
    13.2838  14.0533

          k =-0.2188 0.7188 0.0938 (  5127 PWs)   bands (ev):

   -16.9855 -16.9789 -16.9259 -16.8637 -16.8430 -16.8296 -16.7821 -16.7496
   -16.6948 -16.6883  -2.4724   0.9984   4.6082   5.3077   9.2972  10.5390
    13.3378  14.7900

          k = 0.7188-0.2188 1.0312 (  5128 PWs)   bands (ev):

   -16.9874 -16.9847 -16.9131 -16.8556 -16.8502 -16.8217 -16.7913 -16.7622
   -16.6882 -16.6857  -2.0898   0.5268   4.3545   4.9882   9.8701  10.4998
    13.1053  15.4967

          k = 0.6562-0.1562 0.9688 (  5131 PWs)   bands (ev):

   -16.9909 -16.9877 -16.8993 -16.8546 -16.8475 -16.8160 -16.8017 -16.7750
   -16.6848 -16.6817  -1.6864   0.0706   4.1264   4.7423  10.3746  10.9017
    12.8506  15.1798

          k = 0.5938-0.0938 0.9062 (  5129 PWs)   bands (ev):

   -16.9943 -16.9883 -16.8901 -16.8532 -16.8403 -16.8176 -16.8099 -16.7828
   -16.6839 -16.6782  -1.3818  -0.2518   3.9143   4.6918  10.5063  11.9012
    12.6668  14.0903

          k = 0.5312-0.0312 0.8438 (  5131 PWs)   bands (ev):

   -16.9954 -16.9880 -16.8898 -16.8458 -16.8420 -16.8217 -16.8119 -16.7827
   -16.6842 -16.6773  -1.4533  -0.1717   3.7953   4.8138  10.6593  12.3231
    12.9139  13.2890

          k = 0.4688 0.0312 0.7812 (  5139 PWs)   bands (ev):

   -16.9940 -16.9867 -16.8962 -16.8544 -16.8352 -16.8292 -16.8010 -16.7780
   -16.6858 -16.6791  -1.8055   0.1990   3.8422   5.0572  10.8035  11.7496
    12.4338  14.4056

          k = 0.4062 0.0938 0.7188 (  5138 PWs)   bands (ev):

   -16.9910 -16.9838 -16.9069 -16.8647 -16.8405 -16.8247 -16.7871 -16.7702
   -16.6892 -16.6827  -2.1989   0.6050   4.0880   5.3731  10.5232  11.3034
    12.4467  14.6025

          k =-0.1562 0.7812 0.1562 (  5117 PWs)   bands (ev):

   -16.9874 -16.9788 -16.9231 -16.8549 -16.8544 -16.8194 -16.7902 -16.7523
   -16.6940 -16.6858  -2.1706   0.5985   4.4703   5.2599   8.9338  10.3704
    14.2352  14.9181

          k = 0.7812-0.1562 1.0938 (  5129 PWs)   bands (ev):

   -16.9888 -16.9821 -16.9136 -16.8637 -16.8461 -16.8103 -16.7992 -16.7617
   -16.6901 -16.6838  -1.8079   0.1689   4.3350   5.0309   9.1322  10.2776
    14.2676  15.6254

          k = 0.7188-0.0938 1.0312 (  5121 PWs)   bands (ev):

   -16.9896 -16.9871 -16.8989 -16.8706 -16.8375 -16.8093 -16.8025 -16.7756
   -16.6849 -16.6826  -1.4029  -0.2612   4.2849   4.6380   9.8036  10.2757
    14.0290  15.4213

          k = 0.6562-0.0312 0.9688 (  5127 PWs)   bands (ev):

   -16.9919 -16.9896 -16.8848 -16.8725 -16.8296 -16.8198 -16.7993 -16.7881
   -16.6824 -16.6803  -1.0248  -0.6304   4.1613   4.4336  10.3335  10.7933
    13.7863  14.2879

          k = 0.5938 0.0312 0.9062 (  5136 PWs)   bands (ev):

   -16.9946 -16.9889 -16.8860 -16.8580 -16.8343 -16.8187 -16.8107 -16.7863
   -16.6832 -16.6778  -1.1753  -0.4603   3.9042   4.6016  10.4883  11.9127
    13.0958  13.5902

          k = 0.5312 0.0938 0.8438 (  5125 PWs)   bands (ev):

   -16.9951 -16.9873 -16.8924 -16.8490 -16.8376 -16.8269 -16.8073 -16.7808
   -16.6851 -16.6776  -1.5476  -0.0890   3.8262   4.8918  10.6588  11.9147
    13.2154  13.4779

          k = 0.4688 0.1562 0.7812 (  5126 PWs)   bands (ev):

   -16.9936 -16.9844 -16.9013 -16.8588 -16.8405 -16.8231 -16.7958 -16.7744
   -16.6883 -16.6797  -1.9042   0.2260   3.9777   5.2563  10.5108  11.3365
    13.3392  14.2537

          k =-0.1562-1.0938 0.1562 (  5125 PWs)   bands (ev):

   -16.9898 -16.9812 -16.9102 -16.8735 -16.8368 -16.8079 -16.8011 -16.7656
   -16.6902 -16.6824  -1.4725  -0.2235   4.2353   5.1098   8.8001  10.1654
    15.2417  15.6694

          k =-0.2188-1.0312 0.0938 (  5126 PWs)   bands (ev):

   -16.9903 -16.9835 -16.9012 -16.8798 -16.8280 -16.8171 -16.7944 -16.7744
   -16.6878 -16.6817  -1.1099  -0.6007   4.2138   4.9135   9.0611  10.1468
    15.2214  15.6191

          k =-0.2812-0.9688 0.0312 (  5119 PWs)   bands (ev):

   -16.9900 -16.9876 -16.8913 -16.8794 -16.8282 -16.8185 -16.7941 -16.7829
   -16.6842 -16.6820  -1.0442  -0.6400   4.2861   4.5519   9.7953  10.2214
    14.5203  15.0019

          k =-0.3438-0.9062-0.0312 (  5122 PWs)   bands (ev):

   -16.9916 -16.9889 -16.8920 -16.8641 -16.8386 -16.8109 -16.8070 -16.7815
   -16.6833 -16.6807  -1.3556  -0.2867   4.1338   4.5529  10.3463  10.8332
    13.3007  14.7764

          k =-0.4062-0.8438-0.0938 (  5127 PWs)   bands (ev):

   -16.9937 -16.9871 -16.8958 -16.8505 -16.8432 -16.8235 -16.8028 -16.7782
   -16.6854 -16.6791  -1.6485   0.0205   3.9432   4.8603  10.5363  11.7979
    12.3929  14.5522

          k =-0.1562-0.9688 0.1562 (  5125 PWs)   bands (ev):

   -16.9903 -16.9817 -16.9052 -16.8797 -16.8280 -16.8166 -16.7947 -16.7709
   -16.6894 -16.6817  -1.1366  -0.5846   4.1881   5.0796   8.7730  10.1219
    15.6127  15.8826

          k =-0.2188-0.9062 0.0938 (  5131 PWs)   bands (ev):

   -16.9898 -16.9830 -16.9068 -16.8729 -16.8370 -16.8083 -16.8012 -16.7686
   -16.6886 -16.6824  -1.4530  -0.2337   4.2544   4.9525   9.0848  10.1914
    14.7552  15.7861

          k =-0.2812-0.8438 0.0312 (  5133 PWs)   bands (ev):

   -16.9887 -16.9861 -16.9063 -16.8607 -16.8467 -16.8120 -16.8002 -16.7685
   -16.6863 -16.6838  -1.7542   0.1305   4.3039   4.7879   9.8264  10.3741
    13.5514  15.6431

          k =-0.3438-0.7812-0.0312 (  5138 PWs)   bands (ev):

   -16.9898 -16.9861 -16.9059 -16.8563 -16.8444 -16.8251 -16.7929 -16.7694
   -16.6867 -16.6834  -2.0054   0.4305   4.1546   4.9826  10.4206  10.9711
    12.4654  15.2959

          k =-0.1562-0.8438 0.1562 (  5122 PWs)   bands (ev):

   -16.9889 -16.9802 -16.9167 -16.8645 -16.8459 -16.8098 -16.7989 -16.7589
   -16.6918 -16.6838  -1.8276   0.1815   4.3295   5.1701   8.8540  10.2502
    14.7494  15.3242

          k =-0.2188-0.7812 0.0938 (  5128 PWs)   bands (ev):

   -16.9874 -16.9807 -16.9201 -16.8552 -16.8533 -16.8199 -16.7905 -16.7552
   -16.6922 -16.6858  -2.1494   0.5815   4.4537   5.1491   9.2033  10.3982
    13.7882  15.2502

          k =-0.2812-0.7188 0.0312 (  5124 PWs)   bands (ev):

   -16.9856 -16.9830 -16.9189 -16.8641 -16.8396 -16.8314 -16.7830 -16.7570
   -16.6905 -16.6882  -2.4071   0.9252   4.4398   5.2323   9.9376  10.6264
    12.7150  15.0714

          k =-0.1562-0.7188 0.1562 (  5116 PWs)   bands (ev):

   -16.9856 -16.9769 -16.9289 -16.8635 -16.8441 -16.8291 -16.7819 -16.7464
   -16.6968 -16.6883  -2.4951   1.0208   4.6569   5.3787   9.0380  10.5142
    13.7362  14.4887

          k =-0.2188-0.6562 0.0938 (  5125 PWs)   bands (ev):

   -16.9833 -16.9769 -16.9309 -16.8718 -16.8411 -16.8305 -16.7744 -16.7450
   -16.6978 -16.6910  -2.7742   1.4169   4.7950   5.5067   9.4119  10.6711
    12.9460  14.3002

          k =-0.1562-0.5938 0.1562 (  5115 PWs)   bands (ev):

   -16.9809 -16.9725 -16.9382 -16.8792 -16.8506 -16.8206 -16.7671 -16.7379
   -16.7037 -16.6941  -3.0783   1.8690   5.1609   5.6988   9.3050  10.7543
    12.9249  13.6199

          k =-0.2188 0.2188 0.2188 (  5120 PWs)   bands (ev):

   -16.9654 -16.9654 -16.9453 -16.8988 -16.8988 -16.7575 -16.7575 -16.7431
   -16.7101 -16.7101  -4.0302   3.6718   7.0953   7.0953   8.4051  11.2450
    11.2450  12.6013

          k =-0.2812 0.2812 0.1562 (  5119 PWs)   bands (ev):

   -16.9696 -16.9659 -16.9431 -16.8985 -16.8909 -16.7668 -16.7585 -16.7406
   -16.7122 -16.7044  -3.8861   3.2753   6.3863   7.1721   8.7581  11.1609
    11.4633  12.9545

[...]
   -16.6819 -16.6782  -1.2576  -0.3619   3.9311   4.4952  11.4474  11.8004
    12.3126  13.3900

          k =-0.2188-1.1562 0.2188 (  5132 PWs)   bands (ev):

   -16.9927 -16.9805 -16.9121 -16.8514 -16.8471 -16.8210 -16.7991 -16.7637
   -16.6916 -16.6802  -1.7954   0.1371   4.0484   5.3202   9.0054  11.2866
    14.0457  14.7068

          k =-0.2812-1.0938 0.1562 (  5123 PWs)   bands (ev):

   -16.9937 -16.9831 -16.9039 -16.8583 -16.8387 -16.8143 -16.8080 -16.7715
   -16.6886 -16.6789  -1.4741  -0.1961   3.9440   5.1041   9.2298  11.2536
    14.0475  15.1602

          k =-0.3438-1.0312 0.0938 (  5129 PWs)   bands (ev):

   -16.9938 -16.9873 -16.8910 -16.8642 -16.8314 -16.8181 -16.8069 -16.7827
   -16.6846 -16.6786  -1.1455  -0.5113   3.9634   4.7011   9.9360  11.2944
    13.8001  14.2951

          k =-0.4062-0.9688 0.0312 (  5128 PWs)   bands (ev):

   -16.9931 -16.9910 -16.8792 -16.8666 -16.8312 -16.8214 -16.8033 -16.7922
   -16.6811 -16.6791  -1.0096  -0.6232   4.0734   4.3460  10.9232  11.4034
    13.0703  13.5683

          k =-0.2188-1.0312 0.2188 (  5128 PWs)   bands (ev):

   -16.9944 -16.9820 -16.9042 -16.8621 -16.8308 -16.8152 -16.8109 -16.7717
   -16.6893 -16.6781  -1.2719  -0.4181   3.8629   5.2343   8.9118  11.1999
    14.9441  15.2320

          k =-0.2812-0.9688 0.1562 (  5125 PWs)   bands (ev):

   -16.9942 -16.9836 -16.9005 -16.8626 -16.8311 -16.8159 -16.8098 -16.7747
   -16.6879 -16.6782  -1.2396  -0.4407   3.8885   5.0673   9.2005  11.2240
    14.5207  14.9407

          k =-0.3438-0.9062 0.0938 (  5126 PWs)   bands (ev):

   -16.9933 -16.9868 -16.8953 -16.8589 -16.8392 -16.8133 -16.8089 -16.7787
   -16.6853 -16.6791  -1.4017  -0.2460   3.9913   4.7681   9.9597  11.3208
    13.3199  14.7587

          k =-0.2188-0.9062 0.2188 (  5128 PWs)   bands (ev):

   -16.9938 -16.9815 -16.9073 -16.8580 -16.8384 -16.8148 -16.8077 -16.7685
   -16.6901 -16.6788  -1.5000  -0.1796   3.9250   5.2630   8.9435  11.2302
    14.5413  15.0303

          k =-0.2812-0.8438 0.1562 (  5129 PWs)   bands (ev):

   -16.9926 -16.9821 -16.9089 -16.8516 -16.8471 -16.8207 -16.7995 -16.7666
   -16.6900 -16.6803  -1.7717   0.1224   4.0534   5.1781   9.2868  11.3076
    13.5743  15.0363

          k =-0.2188-0.7812 0.2188 (  5127 PWs)   bands (ev):

   -16.9910 -16.9790 -16.9175 -16.8558 -16.8441 -16.8277 -16.7906 -16.7584
   -16.6937 -16.6823  -2.1005   0.4751   4.2309   5.4054   9.0942  11.3570
    13.5587  14.3311

          k =-0.2812 0.2812 0.2812 (  5105 PWs)   bands (ev):

   -16.9688 -16.9688 -16.9422 -16.8924 -16.8924 -16.7625 -16.7625 -16.7466
   -16.7065 -16.7065  -3.6947   2.6311   6.8617   6.8617   8.1994  11.4504
    11.4504  13.6871

          k =-0.3438 0.3438 0.2188 (  5108 PWs)   bands (ev):

   -16.9724 -16.9699 -16.9388 -16.8928 -16.8849 -16.7712 -16.7624 -16.7466
   -16.7072 -16.7017  -3.5306   2.2905   6.1707   6.9162   8.5830  11.3874
    11.6278  13.8436

          k =-0.4062 0.4062 0.1562 (  5122 PWs)   bands (ev):

   -16.9760 -16.9758 -16.9299 -16.8904 -16.8753 -16.7807 -16.7662 -16.7528
   -16.7017 -16.6973  -3.2856   1.9330   5.2885   6.7903   9.1985  11.6370
    11.7041  13.6862

          k =-0.4688 0.4688 0.0938 (  5123 PWs)   bands (ev):

   -16.9831 -16.9790 -16.9187 -16.8855 -16.8647 -16.7902 -16.7711 -16.7647
   -16.6938 -16.6932  -2.9679   1.5396   4.5401   6.5381   9.5767  12.0326
    12.1248  13.4730

          k = 0.4688-0.4688 1.0312 (  5128 PWs)   bands (ev):

   -16.9895 -16.9810 -16.9096 -16.8766 -16.8547 -16.7987 -16.7850 -16.7703
   -16.6914 -16.6855  -2.5937   1.0856   4.0246   6.2371   9.6020  12.7233
    12.7795  13.3082

          k = 0.4062-0.4062 0.9688 (  5142 PWs)   bands (ev):

   -16.9938 -16.9818 -16.9054 -16.8633 -16.8473 -16.8042 -16.8028 -16.7717
   -16.6903 -16.6802  -2.1995   0.5976   3.7705   5.9450   9.4573  13.1927
    13.2928  13.7584

          k = 0.3438-0.3438 0.9062 (  5127 PWs)   bands (ev):

   -16.9955 -16.9816 -16.9054 -16.8492 -16.8454 -16.8193 -16.8042 -16.7710
   -16.6903 -16.6779  -1.8802   0.2039   3.7491   5.6971   9.2919  13.0588
    13.7417  13.8643

          k = 0.2812-0.2812 0.8438 (  5126 PWs)   bands (ev):

   -16.9945 -16.9806 -16.9093 -16.8492 -16.8413 -16.8289 -16.7987 -16.7669
   -16.6915 -16.6787  -1.8303   0.1387   3.9154   5.5134   9.1664  12.3659
    13.4892  14.0768

          k =-0.2812 0.4062 0.2812 (  5111 PWs)   bands (ev):

   -16.9741 -16.9692 -16.9387 -16.8908 -16.8830 -16.7755 -16.7608 -16.7473
   -16.7070 -16.7005  -3.4008   1.9844   6.3994   6.4896   8.6000  11.2184
    11.8683  14.0230

          k =-0.3438 0.4688 0.2188 (  5124 PWs)   bands (ev):

   -16.9778 -16.9725 -16.9327 -16.8882 -16.8755 -16.7840 -16.7633 -16.7512
   -16.7037 -16.6967  -3.1900   1.6704   5.6008   6.5109   9.0803  11.2013
    12.0932  13.8522

          k =-0.4062 0.5312 0.1562 (  5124 PWs)   bands (ev):

   -16.9827 -16.9777 -16.9219 -16.8838 -16.8656 -16.7932 -16.7672 -16.7629
   -16.6966 -16.6923  -2.9046   1.3460   4.8026   6.3463   9.6049  11.3199
    12.4629  13.6975

          k = 0.5312-0.4062 1.0938 (  5132 PWs)   bands (ev):

   -16.9887 -16.9810 -16.9111 -16.8760 -16.8548 -16.8028 -16.7797 -16.7702
   -16.6918 -16.6861  -2.5561   0.9849   4.1765   6.0684   9.8354  11.7566
    12.9298  13.7603

          k = 0.4688-0.3438 1.0312 (  5138 PWs)   bands (ev):

   -16.9936 -16.9827 -16.9041 -16.8634 -16.8445 -16.8130 -16.7968 -16.7727
   -16.6895 -16.6803  -2.1671   0.5704   3.7949   5.7689   9.7454  12.5582
    13.1723  14.1414

          k = 0.4062-0.2812 0.9688 (  5130 PWs)   bands (ev):

   -16.9960 -16.9833 -16.9014 -16.8488 -16.8369 -16.8256 -16.8077 -16.7739
   -16.6886 -16.6772  -1.7948   0.1557   3.6721   5.5025   9.5624  13.0847
    13.6290  13.7790

          k = 0.3438-0.2188 0.9062 (  5126 PWs)   bands (ev):

   -16.9956 -16.9830 -16.9027 -16.8444 -16.8393 -16.8285 -16.8069 -16.7726
   -16.6888 -16.6773  -1.6007  -0.0667   3.7745   5.2997   9.3987  12.3931
    13.4227  14.5203

          k =-0.2812 0.5312 0.2812 (  5124 PWs)   bands (ev):

   -16.9808 -16.9717 -16.9323 -16.8841 -16.8711 -16.7919 -16.7653 -16.7495
   -16.7041 -16.6937  -3.0150   1.3876   5.5698   6.1267   9.2124  11.1365
    12.4002  13.6464

          k =-0.3438 0.5938 0.2188 (  5129 PWs)   bands (ev):

   -16.9845 -16.9754 -16.9250 -16.8790 -16.8631 -16.8007 -16.7704 -16.7558
   -16.6994 -16.6899  -2.7661   1.1023   4.9782   5.9984   9.5442  11.2131
    12.7235  13.5161

          k = 0.5938-0.3438 1.1562 (  5127 PWs)   bands (ev):

   -16.9887 -16.9804 -16.9138 -16.8725 -16.8528 -16.8102 -16.7787 -16.7660
   -16.6930 -16.6855  -2.4515   0.8013   4.3788   5.7502  10.0796  11.2059
    12.9193  13.8706

          k = 0.5312-0.2812 1.0938 (  5133 PWs)   bands (ev):

   -16.9927 -16.9840 -16.9031 -16.8629 -16.8415 -16.8209 -16.7923 -16.7734
   -16.6886 -16.6809  -2.0853   0.4585   3.9477   5.4300  10.4004  11.5254
    12.9485  14.4641

          k = 0.4688-0.2188 1.0312 (  5130 PWs)   bands (ev):

   -16.9954 -16.9860 -16.8957 -16.8499 -16.8338 -16.8297 -16.8067 -16.7781
   -16.6863 -16.6776  -1.6962   0.0719   3.7461   5.1281  10.2892  12.3926
    13.0148  13.8007

          k = 0.4062-0.1562 0.9688 (  5125 PWs)   bands (ev):

   -16.9957 -16.9868 -16.8925 -16.8480 -16.8382 -16.8204 -16.8141 -16.7809
   -16.6852 -16.6770  -1.3763  -0.2634   3.7755   4.8963  10.1064  12.4314
    13.1590  13.6293

          k =-0.2812 0.6562 0.2812 (  5126 PWs)   bands (ev):

   -16.9874 -16.9755 -16.9236 -16.8725 -16.8578 -16.8088 -16.7760 -16.7551
   -16.6988 -16.6867  -2.5571   0.8471   4.7791   5.8183   9.3721  11.5897
    13.0327  13.2519

          k = 0.6562-0.2812 1.2188 (  5124 PWs)   bands (ev):

   -16.9904 -16.9790 -16.9159 -16.8657 -16.8497 -16.8173 -16.7835 -16.7618
   -16.6944 -16.6834  -2.2851   0.5846   4.3778   5.6101   9.5745  11.7599
    12.9343  13.7693

          k = 0.5938-0.2188 1.1562 (  5132 PWs)   bands (ev):

   -16.9929 -16.9837 -16.9044 -16.8586 -16.8396 -16.8264 -16.7934 -16.7716
   -16.6890 -16.6804  -1.9598   0.2972   4.0399   5.2506  10.1904  11.6603
    12.7948  14.5160

          k = 0.5312-0.1562 1.0938 (  5129 PWs)   bands (ev):

   -16.9946 -16.9876 -16.8925 -16.8505 -16.8389 -16.8260 -16.8052 -16.7807
   -16.6848 -16.6782  -1.5946  -0.0360   3.8680   4.8575  10.9719  11.5659
    12.7787  13.9226

          k = 0.4688-0.0938 1.0312 (  5133 PWs)   bands (ev):

   -16.9948 -16.9900 -16.8829 -16.8545 -16.8373 -16.8184 -16.8123 -16.7885
   -16.6822 -16.6777  -1.2132  -0.4094   3.8937   4.5297  11.0751  12.2268
    12.7023  12.9562

          k =-0.2812-1.2188 0.2812 (  5124 PWs)   bands (ev):

   -16.9926 -16.9792 -16.9139 -16.8574 -16.8454 -16.8239 -16.7907 -16.7630
   -16.6935 -16.6808  -2.0649   0.3580   4.1453   5.5913   9.2397  12.2385
    13.2055  13.7321

          k =-0.3438-1.1562 0.2188 (  5126 PWs)   bands (ev):

   -16.9944 -16.9821 -16.9064 -16.8505 -16.8395 -16.8292 -16.7992 -16.7694
   -16.6902 -16.6787  -1.8022   0.1215   3.9181   5.3680   9.4478  12.3299
    13.0679  14.4272

          k =-0.4062-1.0938 0.1562 (  5123 PWs)   bands (ev):

   -16.9952 -16.9862 -16.8951 -16.8474 -16.8399 -16.8248 -16.8081 -16.7787
   -16.6859 -16.6775  -1.5111  -0.1345   3.8225   4.9558  10.1258  12.3282
    12.8274  14.0943

          k =-0.2812-1.0938 0.2812 (  5122 PWs)   bands (ev):

   -16.9958 -16.9816 -16.9057 -16.8412 -16.8411 -16.8298 -16.8065 -16.7702
   -16.6901 -16.6772  -1.6313  -0.0455   3.7564   5.4608   9.1119  12.3850
    13.9163  14.3757

          k =-0.3438-1.0312 0.2188 (  5126 PWs)   bands (ev):

   -16.9962 -16.9835 -16.9005 -16.8440 -16.8367 -16.8258 -16.8129 -16.7746
   -16.6881 -16.6765  -1.4756  -0.1838   3.7005   5.2657   9.3725  12.3981
    13.8601  14.2775

          k =-0.2812-0.9688 0.2812 (  5128 PWs)   bands (ev):

   -16.9964 -16.9822 -16.9036 -16.8426 -16.8351 -16.8286 -16.8126 -16.7721
   -16.6893 -16.6764  -1.5088  -0.1590   3.6751   5.4344   9.0832  12.3799
    14.3177  14.5624

          k =-0.3438 0.3438 0.3438 (  5114 PWs)   bands (ev):

   -16.9710 -16.9710 -16.9393 -16.8878 -16.8878 -16.7659 -16.7659 -16.7498
   -16.7040 -16.7040  -3.3089   1.7043   6.6766   6.6766   8.0236  11.5286
    11.5286  14.7064

          k =-0.4062 0.4062 0.2812 (  5113 PWs)   bands (ev):

   -16.9739 -16.9730 -16.9349 -16.8882 -16.8813 -16.7732 -16.7650 -16.7525
   -16.7032 -16.7002  -3.1370   1.4254   6.0302   6.6956   8.4413  11.5151
    11.6143  14.7028

          k =-0.4688 0.4688 0.2188 (  5119 PWs)   bands (ev):

   -16.9797 -16.9769 -16.9248 -16.8853 -16.8724 -16.7819 -16.7671 -16.7631
   -16.6964 -16.6963  -2.8904   1.1582   5.1660   6.5390   9.0967  11.6140
    11.8354  14.5543

          k = 0.4688-0.4688 1.1562 (  5124 PWs)   bands (ev):

   -16.9872 -16.9795 -16.9139 -16.8781 -16.8618 -16.7913 -16.7802 -16.7693
   -16.6932 -16.6879  -2.5779   0.8824   4.4176   6.2696   9.4737  11.9150
    12.4155  14.4205

          k = 0.4062-0.4062 1.0938 (  5127 PWs)   bands (ev):

   -16.9930 -16.9813 -16.9068 -16.8646 -16.8508 -16.8007 -16.8006 -16.7710
   -16.6909 -16.6810  -2.2137   0.5606   3.8924   5.9632   9.4563  12.6794
    13.1480  14.2747

          k = 0.3438-0.3438 1.0312 (  5125 PWs)   bands (ev):

   -16.9962 -16.9821 -16.9038 -16.8469 -16.8407 -16.8222 -16.8089 -16.7722
   -16.6896 -16.6771  -1.8277   0.1817   3.6470   5.6740   9.2729  13.4248
    13.8447  13.9096

          k =-0.3438 0.4688 0.3438 (  5122 PWs)   bands (ev):

   -16.9759 -16.9714 -16.9349 -16.8863 -16.8807 -16.7757 -16.7650 -16.7520
   -16.7041 -16.6986  -3.0065   1.1748   6.1940   6.3962   8.4506  11.3204
    11.8237  14.7504

          k =-0.4062 0.5312 0.2812 (  5116 PWs)   bands (ev):

   -16.9800 -16.9744 -16.9280 -16.8835 -16.8743 -16.7829 -16.7676 -16.7579
   -16.7004 -16.6946  -2.8036   0.9438   5.4765   6.3491   8.9623  11.2855
    12.0496  14.6306

          k = 0.5312-0.4062 1.2188 (  5121 PWs)   bands (ev):

   -16.9858 -16.9783 -16.9173 -16.8778 -16.8649 -16.7919 -16.7754 -16.7669
   -16.6951 -16.6889  -2.5355   0.7253   4.7169   6.1416   9.5140  11.3384
    12.5410  14.5531

          k = 0.4688-0.3438 1.1562 (  5125 PWs)   bands (ev):

   -16.9916 -16.9811 -16.9084 -16.8670 -16.8537 -16.8042 -16.7907 -16.7704
   -16.6915 -16.6824  -2.2121   0.4850   4.1166   5.8409   9.7109  11.7957
    13.2443  14.4686

          k = 0.4062-0.2812 1.0938 (  5129 PWs)   bands (ev):

   -16.9954 -16.9828 -16.9031 -16.8517 -16.8412 -16.8222 -16.8035 -16.7727
   -16.6893 -16.6780  -1.8481   0.1807   3.7659   5.5325   9.5781  12.6590
    13.7282  13.9272

          k =-0.3438 0.5938 0.3438 (  5115 PWs)   bands (ev):

   -16.9828 -16.9739 -16.9267 -16.8790 -16.8720 -16.7886 -16.7711 -16.7564
   -16.7008 -16.6916  -2.6494   0.7449   5.3509   6.1238   9.0959  11.2633
    12.2726  14.4362

          k = 0.5938-0.3438 1.2812 (  5118 PWs)   bands (ev):

   -16.9868 -16.9771 -16.9193 -16.8739 -16.8649 -16.7964 -16.7772 -16.7623
   -16.6968 -16.6875  -2.4349   0.5686   4.8170   5.9567   9.4792  11.2807
    12.6902  14.3265

          k = 0.5312-0.2812 1.2188 (  5135 PWs)   bands (ev):

   -16.9909 -16.9810 -16.9094 -16.8671 -16.8540 -16.8073 -16.7868 -16.7694
   -16.6920 -16.6829  -2.1680   0.3923   4.2896   5.6483  10.0403  11.2113
    13.3543  14.3187

          k = 0.4688-0.2188 1.1562 (  5126 PWs)   bands (ev):

   -16.9941 -16.9842 -16.9010 -16.8571 -16.8407 -16.8227 -16.7980 -16.7745
   -16.6884 -16.6791  -1.8572   0.1709   3.9326   5.2862  10.2787  11.6071
    13.7735  13.8885

          k =-0.3438-1.2812 0.3438 (  5135 PWs)   bands (ev):

   -16.9894 -16.9775 -16.9170 -16.8669 -16.8624 -16.8021 -16.7829 -16.7627
   -16.6958 -16.6847  -2.2832   0.4347   4.5550   5.8975   9.3551  11.7188
    12.8467  14.1314

          k =-0.4062-1.2188 0.2812 (  5127 PWs)   bands (ev):

   -16.9922 -16.9804 -16.9101 -16.8619 -16.8535 -16.8103 -16.7904 -16.7678
   -16.6924 -16.6815  -2.0884   0.3138   4.1918   5.6830   9.6180  11.8104
    13.3765  14.0888

          k =-0.3438-1.1562 0.3438 (  5114 PWs)   bands (ev):

   -16.9941 -16.9806 -16.9084 -16.8531 -16.8523 -16.8145 -16.7974 -16.7688
   -16.6916 -16.6795  -1.9802   0.2512   3.9446   5.7427   9.3238  12.5889
    13.4716  13.9224

          k =-0.4062 0.4062 0.4062 (  5117 PWs)   bands (ev):

   -16.9723 -16.9723 -16.9370 -16.8850 -16.8850 -16.7677 -16.7677 -16.7524
   -16.7025 -16.7025  -2.9240   0.9538   6.5496   6.5496   7.8998  11.5313
    11.5313  14.9914

          k =-0.4688 0.4688 0.3438 (  5119 PWs)   bands (ev):

   -16.9751 -16.9743 -16.9323 -16.8848 -16.8801 -16.7730 -16.7672 -16.7568
   -16.7003 -16.6998  -2.7730   0.7618   5.9644   6.5260   8.3523  11.5303
    11.5891  15.0788

          k = 0.4688-0.4688 1.2812 (  5114 PWs)   bands (ev):

   -16.9823 -16.9767 -16.9223 -16.8802 -16.8725 -16.7801 -16.7736 -16.7653
   -16.6968 -16.6928  -2.5600   0.6030   5.1417   6.3362   9.0388  11.4779
    11.9859  15.2244

          k = 0.4062-0.4062 1.2188 (  5119 PWs)   bands (ev):

   -16.9893 -16.9789 -16.9135 -16.8697 -16.8629 -16.7922 -16.7884 -16.7675
   -16.6940 -16.6850  -2.2930   0.4508   4.4299   6.0509   9.3912  11.8031
    12.6438  14.9641

          k =-0.4062 0.5312 0.4062 (  5116 PWs)   bands (ev):

   -16.9766 -16.9729 -16.9323 -16.8830 -16.8806 -16.7737 -16.7685 -16.7558
   -16.7019 -16.6980  -2.6798   0.6079   6.0496   6.3720   8.3565  11.3783
    11.7387  15.0487

          k = 0.5312-0.4062 1.3438 (  5122 PWs)   bands (ev):

   -16.9811 -16.9752 -16.9254 -16.8797 -16.8755 -16.7793 -16.7726 -16.7614
   -16.6989 -16.6936  -2.5307   0.4979   5.4170   6.2636   8.9009  11.3038
    12.0117  15.1747

          k = 0.4688-0.3438 1.2812 (  5124 PWs)   bands (ev):

   -16.9872 -16.9780 -16.9165 -16.8727 -16.8664 -16.7910 -16.7815 -16.7659
   -16.6953 -16.6871  -2.3320   0.4163   4.7267   6.0069   9.4692  11.3089
    12.6172  15.0407

          k =-0.4062-1.3438 0.4062 (  5121 PWs)   bands (ev):

   -16.9833 -16.9756 -16.9231 -16.8755 -16.8750 -16.7822 -16.7762 -16.7618
   -16.6983 -16.6912  -2.4533   0.4378   5.2058   6.1951   9.0372  11.3603
    12.1275  15.1309

          k =-0.4688 0.4688 0.4688 (  5120 PWs)   bands (ev):

   -16.9729 -16.9729 -16.9358 -16.8837 -16.8837 -16.7685 -16.7685 -16.7538
   -16.7018 -16.7018  -2.6539   0.4993   6.4852   6.4852   7.8364  11.5168
    11.5168  14.9382

          k = 0.4688-0.4688 1.4062 (  5139 PWs)   bands (ev):

   -16.9763 -16.9739 -16.9313 -16.8822 -16.8809 -16.7713 -16.7704 -16.7578
   -16.7005 -16.6985  -2.5772   0.4451   5.9718   6.4163   8.3233  11.4437
    11.6568  15.0988

     the Fermi energy is     7.8069 ev

!    total energy              =    -422.81760513 Ry
     Harris-Foulkes estimate   =    -422.81760513 Ry
     estimated scf accuracy    <          1.5E-13 Ry

     The total energy is the sum of the following terms:

     one-electron contribution =    -280.14233150 Ry
     hartree contribution      =     164.98265135 Ry
     xc contribution           =    -113.66391181 Ry
     ewald contribution        =    -193.99401317 Ry
     smearing contrib. (-TS)   =       0.00000000 Ry

     convergence has been achieved in  12 iterations

     Forces acting on atoms (Ry/au):

     atom    1 type  1   force =     0.00000000    0.00000000   -0.00000000
     atom    2 type  1   force =     0.00000000    0.00000000   -0.00000000

     Total force =     0.000000     Total SCF correction =     0.000000


     entering subroutine stress ...

          total   stress  (Ry/bohr**3)                   (kbar)     P=        0.14
   0.00000094  -0.00000000   0.00000000          0.14     -0.00      0.00
   0.00000000   0.00000094  -0.00000000          0.00      0.14     -0.00
   0.00000000  -0.00000000   0.00000094          0.00     -0.00      0.14


     Writing output data file Ge-diamond.save
 
     init_run     :     35.76s CPU     36.13s WALL (       1 calls)
     electrons    :   1360.74s CPU   1382.64s WALL (       1 calls)
     forces       :      4.62s CPU      4.73s WALL (       1 calls)
     stress       :     16.66s CPU     16.77s WALL (       1 calls)

     Called by init_run:
     wfcinit      :     34.14s CPU     34.46s WALL (       1 calls)
     potinit      :      0.21s CPU      0.23s WALL (       1 calls)

     Called by electrons:
     c_bands      :   1117.08s CPU   1137.13s WALL (      13 calls)
     sum_band     :    236.59s CPU    238.21s WALL (      13 calls)
     v_of_rho     :      2.31s CPU      2.39s WALL (      13 calls)
     newd         :      4.73s CPU      4.77s WALL (      13 calls)
     mix_rho      :      0.24s CPU      0.24s WALL (      13 calls)

     Called by c_bands:
     init_us_2    :     14.38s CPU     16.53s WALL (   11832 calls)
     cegterg      :   1036.76s CPU   1038.71s WALL (    5304 calls)

     Called by *egterg:
     h_psi        :    956.18s CPU    958.04s WALL (   16149 calls)
     s_psi        :     19.44s CPU     19.52s WALL (   16149 calls)
     g_psi        :      6.99s CPU      7.08s WALL (   10437 calls)
     cdiaghg      :      7.28s CPU      7.25s WALL (   15333 calls)

     Called by h_psi:
     add_vuspsi   :     19.63s CPU     19.70s WALL (   16149 calls)

     General routines
     calbec       :     30.93s CPU     30.92s WALL (   22269 calls)
     fft          :      1.62s CPU      1.65s WALL (     233 calls)
     ffts         :      0.06s CPU      0.05s WALL (      26 calls)
     fftw         :    923.18s CPU    923.49s WALL (  558990 calls)
     interpolate  :      0.27s CPU      0.27s WALL (      26 calls)
     davcio       :      3.11s CPU     19.51s WALL (   17136 calls)
 
     Parallel routines
     fft_scatter  :     60.48s CPU     60.63s WALL (  559249 calls)
     EXX routines
 
     PWSCF        : 23m38.57s CPU    24m 1.14s WALL

 
   This run was terminated on:  11:20:10   1Nov2013            

=------------------------------------------------------------------------------=
   JOB DONE.
=------------------------------------------------------------------------------=
