
     Program PWSCF v.5.0        starts on  1Nov2013 at 11:20:10 

     This program is part of the open-source Quantum ESPRESSO suite
     for quantum simulation of materials; please cite
         "P. Giannozzi et al., J. Phys.:Condens. Matter 21 395502 (2009);
          URL http://www.quantum-espresso.org", 
     in publications or presentations arising from this work. More details at
     http://www.quantum-espresso.org/quote.php

     Parallel version (MPI), running on     1 processors

     Current dimensions of program PWSCF are:
     Max number of different atomic species (ntypx) = 10
     Max number of k-points (npk) =  40000
     Max angular momentum in pseudopotentials (lmaxx) =  3
     Waiting for input...
     Reading input from standard input
               file Ge.pbe-dn-rrkjus_psl.0.2.2.UPF: wavefunction(s)  3D renormalized

     Atomic positions and unit cell read from directory:
     ./raw/Ge-diamond.save/
 

     Subspace diagonalization in iterative solution of the eigenvalue problem:
     a serial algorithm will be used

 kpoint style unhandled: 
 none                                                                           
  
 
     G-vector sticks info
     --------------------
     sticks:   dense  smooth     PW     G-vecs:    dense   smooth      PW
     Sum        3115    1561    451               115633    40857    6423
 


     bravais-lattice index     =            2
     lattice parameter (alat)  =      10.8850  a.u.
     unit-cell volume          =     322.4225 (a.u.)^3
     number of atoms/cell      =            2
     number of atomic types    =            1
     number of electrons       =        28.00
     number of Kohn-Sham states=           18
     kinetic-energy cutoff     =      96.0000  Ry
     charge density cutoff     =     768.0000  Ry
     Exchange-correlation      = PBE ( 1 4 3 4 0)
     EXX-fraction              =        0.00

     celldm(1)=  10.885000  celldm(2)=   0.000000  celldm(3)=   0.000000
     celldm(4)=   0.000000  celldm(5)=   0.000000  celldm(6)=   0.000000

     crystal axes: (cart. coord. in units of alat)
               a(1) = (  -0.500000   0.000000   0.500000 )  
               a(2) = (   0.000000   0.500000   0.500000 )  
               a(3) = (  -0.500000   0.500000   0.000000 )  

     reciprocal axes: (cart. coord. in units 2 pi/alat)
               b(1) = ( -1.000000 -1.000000  1.000000 )  
               b(2) = (  1.000000  1.000000  1.000000 )  
               b(3) = ( -1.000000  1.000000 -1.000000 )  


     PseudoPot. # 1 for Ge read from file:
     ../pseudo/Ge.pbe-dn-rrkjus_psl.0.2.2.UPF
     MD5 check sum: 9557dd4be68bf872fc867d431758ce48
     Pseudo is Ultrasoft + core correction, Zval = 14.0
     Generated using "atomic" code by A. Dal Corso  v.5.0.2 svn rev. 9415
     Using radial grid of 1207 points,  6 beta functions with: 
                l(1) =   0
                l(2) =   0
                l(3) =   1
                l(4) =   1
                l(5) =   2
                l(6) =   2
     Q(r) pseudized with 0 coefficients 


     atomic species   valence    mass     pseudopotential
        Ge            14.00    72.64000     Ge( 1.00)

     No symmetry found



   Cartesian axes

     site n.     atom                  positions (alat units)
         1           Ge  tau(   1) = (   0.0000000   0.0000000   0.0000000  )
         2           Ge  tau(   2) = (   0.2500000   0.2500000   0.2500000  )

     number of k points=    15  Fermi-Dirac smearing, width (Ry)=  0.0000
                       cart. coord. in units 2pi/alat
        k(    1) = (   0.0000000   0.0000000   0.0000000), wk =   0.1333333
        k(    2) = (   0.5000000   0.0000000   0.0000000), wk =   0.1333333
        k(    3) = (   1.0000000   0.0000000   0.0000000), wk =   0.1333333
        k(    4) = (   1.0000000   0.2500000   0.0000000), wk =   0.1333333
        k(    5) = (   1.0000000   0.5000000   0.0000000), wk =   0.1333333
        k(    6) = (   0.7500000   0.5000000   0.2500000), wk =   0.1333333
        k(    7) = (   0.5000000   0.5000000   0.5000000), wk =   0.1333333
        k(    8) = (   0.2500000   0.2500000   0.2500000), wk =   0.1333333
        k(    9) = (   0.0000000   0.0000000   0.0000000), wk =   0.1333333
        k(   10) = (   0.5000000   0.5000000   0.0000000), wk =   0.1333333
        k(   11) = (   1.0000000   1.0000000   0.0000000), wk =   0.1333333
        k(   12) = (   0.8750000   0.8750000   0.0000000), wk =   0.1333333
        k(   13) = (   0.7500000   0.7500000   0.0000000), wk =   0.1333333
        k(   14) = (   0.6250000   0.6250000   0.2500000), wk =   0.1333333
        k(   15) = (   0.5000000   0.5000000   0.5000000), wk =   0.1333333

     Dense  grid:   115633 G-vectors     FFT dimensions: (  72,  72,  72)

     Smooth grid:    40857 G-vectors     FFT dimensions: (  50,  50,  50)

     Largest allocated arrays     est. size (Mb)     dimensions
        Kohn-Sham Wavefunctions         1.41 Mb     (   5142,   18)
        NL pseudopotentials             2.82 Mb     (   5142,   36)
        Each V/rho on FFT grid          5.70 Mb     ( 373248)
        Each G-vector array             0.88 Mb     ( 115633)
        G-vector shells                 0.01 Mb     (    770)
     Largest temporary arrays     est. size (Mb)     dimensions
        Auxiliary wavefunctions         5.65 Mb     (   5142,   72)
        Each subspace H/S matrix        0.08 Mb     (  72,  72)
        Each <psi_i|beta_j> matrix      0.01 Mb     (     36,   18)

     The potential is recalculated from file :
     ./raw/Ge-diamond.save/charge-density.dat

     Starting wfc are   18 randomized atomic wfcs

     total cpu time spent up to now is        2.2 secs

     per-process dynamical memory:    67.8 Mb

     Band Structure Calculation
     Davidson diagonalization with overlap

     ethr =  3.57E-15,  avg # of iterations = 19.0
     Warning: too many iterations in bisection
     Ef =   7.799575 sumk =  28.000000 electrons

     total cpu time spent up to now is       21.0 secs

     End of band structure calculation

          k = 0.0000 0.0000 0.0000     band energies (ev):

   -16.9515 -16.9515 -16.9515 -16.9199 -16.9199 -16.7361 -16.7361 -16.7361
   -16.7276 -16.7276  -4.5733   7.3559   7.7996   7.7996   7.7996  10.3325
    10.3325  10.3325

          k = 0.5000 0.0000 0.0000     band energies (ev):

   -16.9676 -16.9676 -16.9561 -16.8906 -16.8604 -16.8119 -16.7546 -16.7157
   -16.7117 -16.7117  -3.6151   3.0602   5.8927   5.8927   8.8655  10.4070
    13.4314  13.4314

          k = 1.0000 0.0000 0.0000     band energies (ev):

   -16.9814 -16.9814 -16.9052 -16.9052 -16.8215 -16.8215 -16.7714 -16.7714
   -16.6896 -16.6896  -0.8919  -0.8919   4.9103   4.9103   8.6183   8.6183
    16.8742  16.8742

          k = 1.0000 0.2500 0.0000     band energies (ev):

   -16.9878 -16.9878 -16.8890 -16.8890 -16.8229 -16.8229 -16.7854 -16.7854
   -16.6839 -16.6839  -0.8516  -0.8516   4.4818   4.4818   9.7406   9.7406
    15.1227  15.1227

          k = 1.0000 0.5000 0.0000     band energies (ev):

   -16.9930 -16.9930 -16.8691 -16.8691 -16.8277 -16.8277 -16.8000 -16.8000
   -16.6793 -16.6793  -0.8094  -0.8094   4.1457   4.1457  11.9160  11.9160
    12.4848  12.4848

          k = 0.7500 0.5000 0.2500     band energies (ev):

   -16.9912 -16.9811 -16.9088 -16.8661 -16.8544 -16.8065 -16.7883 -16.7698
   -16.6919 -16.6825  -2.1250   0.3333   4.2788   5.6352  10.0353  11.2087
    13.3998  14.5069

          k = 0.5000 0.5000 0.5000     band energies (ev):

   -16.9729 -16.9729 -16.9356 -16.8835 -16.8835 -16.7686 -16.7686 -16.7539
   -16.7017 -16.7017  -2.6139   0.4363   6.4771   6.4771   7.8284  11.5143
    11.5143  14.9285

          k = 0.2500 0.2500 0.2500     band energies (ev):

   -16.9672 -16.9672 -16.9437 -16.8954 -16.8954 -16.7602 -16.7602 -16.7448
   -16.7081 -16.7081  -3.8706   3.1399   6.9733   6.9733   8.3008  11.3648
    11.3648  13.1401

          k = 0.0000 0.0000 0.0000     band energies (ev):

   -16.9515 -16.9515 -16.9515 -16.9199 -16.9199 -16.7361 -16.7361 -16.7361
   -16.7276 -16.7276  -4.5733   7.3559   7.7996   7.7996   7.7996  10.3325
    10.3325  10.3325

          k = 0.5000 0.5000 0.0000     band energies (ev):

   -16.9869 -16.9804 -16.9129 -16.8815 -16.8583 -16.7959 -16.7777 -16.7686
   -16.6922 -16.6887  -2.7924   1.3682   4.1742   6.3862   9.6547  12.4722
    12.7335  12.9545

          k = 1.0000 1.0000 0.0000     band energies (ev):

   -16.9814 -16.9814 -16.9052 -16.9052 -16.8215 -16.8215 -16.7714 -16.7714
   -16.6896 -16.6896  -0.8919  -0.8919   4.9103   4.9103   8.6183   8.6183
    16.8742  16.8742

          k = 0.8750 0.8750 0.0000     band energies (ev):

   -16.9880 -16.9816 -16.9046 -16.8886 -16.8241 -16.8200 -16.7864 -16.7717
   -16.6894 -16.6837  -0.9920  -0.7502   4.3766   5.0167   8.7160   9.6424
    16.0022  16.2112

          k = 0.7500 0.7500 0.0000     band energies (ev):

   -16.9957 -16.9821 -16.9035 -16.8528 -16.8316 -16.8193 -16.8153 -16.7722
   -16.6892 -16.6768  -1.3529  -0.3252   3.7405   5.3255   8.9902  11.7801
    14.6994  14.9240

          k = 0.6250 0.6250 0.2500     band energies (ev):

   -16.9896 -16.9783 -16.9148 -16.8658 -16.8646 -16.7975 -16.7859 -16.7655
   -16.6948 -16.6845  -2.2461   0.3826   4.4794   5.9654   9.3665  11.7595
    12.7470  14.6097

          k = 0.5000 0.5000 0.5000     band energies (ev):

   -16.9729 -16.9729 -16.9356 -16.8835 -16.8835 -16.7686 -16.7686 -16.7539
   -16.7017 -16.7017  -2.6139   0.4363   6.4771   6.4771   7.8284  11.5143
    11.5143  14.9285

     the Fermi energy is     7.7996 ev

     Writing output data file Ge-diamond.save
 
     init_run     :      1.42s CPU      1.45s WALL (       1 calls)
     electrons    :     18.83s CPU     18.87s WALL (       1 calls)

     Called by init_run:
     wfcinit      :      0.00s CPU      0.00s WALL (       1 calls)
     potinit      :      0.21s CPU      0.23s WALL (       1 calls)

     Called by electrons:
     c_bands      :     18.83s CPU     18.87s WALL (       1 calls)
     v_of_rho     :      0.18s CPU      0.19s WALL (       1 calls)
     newd         :      0.36s CPU      0.37s WALL (       1 calls)

     Called by c_bands:
     init_us_2    :      0.02s CPU      0.02s WALL (      15 calls)
     cegterg      :     17.36s CPU     17.39s WALL (      19 calls)

     Called by *egterg:
     h_psi        :     15.58s CPU     15.61s WALL (     319 calls)
     s_psi        :      0.32s CPU      0.33s WALL (     319 calls)
     g_psi        :      0.16s CPU      0.17s WALL (     285 calls)
     cdiaghg      :      0.25s CPU      0.26s WALL (     300 calls)

     Called by h_psi:
     add_vuspsi   :      0.32s CPU      0.32s WALL (     319 calls)

     General routines
     calbec       :      0.35s CPU      0.35s WALL (     319 calls)
     fft          :      0.09s CPU      0.10s WALL (      13 calls)
     ffts         :      0.00s CPU      0.00s WALL (       1 calls)
     fftw         :     12.50s CPU     12.46s WALL (    7562 calls)
     interpolate  :      0.01s CPU      0.01s WALL (       1 calls)
     davcio       :      0.00s CPU      0.01s WALL (      15 calls)
 
     Parallel routines
     fft_scatter  :      0.73s CPU      0.74s WALL (    7576 calls)
     EXX routines
 
     PWSCF        :    20.99s CPU        21.10s WALL

 
   This run was terminated on:  11:20:31   1Nov2013            

=------------------------------------------------------------------------------=
   JOB DONE.
=------------------------------------------------------------------------------=
