
     Program PWSCF v.5.0.2 starts on 28Oct2013 at 21: 2:53 

     This program is part of the open-source Quantum ESPRESSO suite
     for quantum simulation of materials; please cite
         "P. Giannozzi et al., J. Phys.:Condens. Matter 21 395502 (2009);
          URL http://www.quantum-espresso.org", 
     in publications or presentations arising from this work. More details at
     http://www.quantum-espresso.org/quote

     Parallel version (MPI), running on     1 processors
     Waiting for input...
     Reading input from standard input
Warning: card  &SHIRLEY ignored
Warning: card   USE_SHIRLEY = .FALSE. ignored
Warning: card  / ignored

     Current dimensions of program PWSCF are:
     Max number of different atomic species (ntypx) = 10
     Max number of k-points (npk) =  40000
     Max angular momentum in pseudopotentials (lmaxx) =  3
               file C.pz-rrkjus.UPF: wavefunction(s)  2S renormalized

     Subspace diagonalization in iterative solution of the eigenvalue problem:
     a serial algorithm will be used

 
     G-vector sticks info
     --------------------
     sticks:   dense  smooth     PW     G-vecs:    dense   smooth      PW
     Sum         757     379    121               136167    48207    9289
 


     bravais-lattice index     =            4
     lattice parameter (alat)  =       4.6490  a.u.
     unit-cell volume          =     696.1443 (a.u.)^3
     number of atoms/cell      =            2
     number of atomic types    =            1
     number of electrons       =         8.00
     number of Kohn-Sham states=            8
     kinetic-energy cutoff     =      64.0000  Ry
     charge density cutoff     =     512.0000  Ry
     convergence threshold     =      1.0E-12
     mixing beta               =       0.3000
     number of iterations used =            8  plain     mixing
     Exchange-correlation      =  SLA  PZ   NOGX NOGC ( 1  1  0  0 0)

     celldm(1)=   4.649000  celldm(2)=   0.000000  celldm(3)=   8.000000
     celldm(4)=   0.000000  celldm(5)=   0.000000  celldm(6)=   0.000000

     crystal axes: (cart. coord. in units of alat)
               a(1) = (   1.000000   0.000000   0.000000 )  
               a(2) = (  -0.500000   0.866025   0.000000 )  
               a(3) = (   0.000000   0.000000   8.000000 )  

     reciprocal axes: (cart. coord. in units 2 pi/alat)
               b(1) = (  1.000000  0.577350  0.000000 )  
               b(2) = (  0.000000  1.154701  0.000000 )  
               b(3) = (  0.000000  0.000000  0.125000 )  


     PseudoPot. # 1 for C  read from file:
     ../pseudo/C.pz-rrkjus.UPF
     MD5 check sum: a648be5dbf3fafdfb4e35f5396849845
     Pseudo is Ultrasoft, Zval =  4.0
     Generated by new atomic code, or converted to UPF format
     Using radial grid of 1425 points,  4 beta functions with: 
                l(1) =   0
                l(2) =   0
                l(3) =   1
                l(4) =   1
     Q(r) pseudized with 0 coefficients 


     atomic species   valence    mass     pseudopotential
        C              4.00    12.00000     C ( 1.00)

      4 Sym. Ops. (no inversion) found
          (note:  4 additional sym.ops. were found but ignored
           their fractional translations are incommensurate with FFT grid)

                                    s                        frac. trans.

      isym =  1     identity                                     

 cryst.   s( 1) = (     1          0          0      )
                  (     0          1          0      )
                  (     0          0          1      )

 cart.    s( 1) = (  1.0000000  0.0000000  0.0000000 )
                  (  0.0000000  1.0000000  0.0000000 )
                  (  0.0000000  0.0000000  1.0000000 )


      isym =  2     180 deg rotation - cart. axis [0,1,0]        

 cryst.   s( 2) = (    -1          0          0      )
                  (     1          1          0      )
                  (     0          0         -1      )

 cart.    s( 2) = ( -1.0000000  0.0000000  0.0000000 )
                  (  0.0000000  1.0000000  0.0000000 )
                  (  0.0000000  0.0000000 -1.0000000 )


      isym =  3     inv. 180 deg rotation - cart. axis [0,0,1]   

 cryst.   s( 3) = (     1          0          0      )
                  (     0          1          0      )
                  (     0          0         -1      )

 cart.    s( 3) = (  1.0000000  0.0000000  0.0000000 )
                  (  0.0000000  1.0000000  0.0000000 )
                  (  0.0000000  0.0000000 -1.0000000 )


      isym =  4     inv. 180 deg rotation - cart. axis [1,0,0]   

 cryst.   s( 4) = (    -1          0          0      )
                  (     1          1          0      )
                  (     0          0          1      )

 cart.    s( 4) = ( -1.0000000  0.0000000  0.0000000 )
                  (  0.0000000  1.0000000  0.0000000 )
                  (  0.0000000  0.0000000  1.0000000 )


     point group C_2v (mm2) 
     there are  4 classes
     the character table:

       E     C2    s_xz  s_yz 
A_1    1.00  1.00  1.00  1.00
A_2    1.00  1.00 -1.00 -1.00
B_1    1.00 -1.00  1.00 -1.00
B_2    1.00 -1.00 -1.00  1.00

     the symmetry operations in each class:
     E        1
     C2       2
     s_xz     3
     s_yz     4

   Cartesian axes

     site n.     atom                  positions (alat units)
         1           C   tau(   1) = (   0.0000000   0.0000000   0.0000000  )
         2           C   tau(   2) = (   0.0000000   0.5771134   0.0000000  )

   Crystallographic axes

     site n.     atom                  positions (cryst. coord.)
         1           C   tau(   1) = (  0.0000000  0.0000000  0.0000000  )
         2           C   tau(   2) = (  0.3331966  0.6663931  0.0000000  )

     number of k points=   200  Fermi-Dirac smearing, width (Ry)=  0.0000
                       cart. coord. in units 2pi/alat
        k(    1) = (   0.0312500   0.0541266   0.0000000), wk =   0.0104167
        k(    2) = (   0.0312500   0.1262954   0.0000000), wk =   0.0104167
        k(    3) = (   0.0312500   0.1984642   0.0000000), wk =   0.0104167
        k(    4) = (   0.0312500   0.2706329   0.0000000), wk =   0.0104167
        k(    5) = (   0.0312500   0.3428017   0.0000000), wk =   0.0104167
        k(    6) = (   0.0312500   0.4149705   0.0000000), wk =   0.0104167
        k(    7) = (   0.0312500   0.4871393   0.0000000), wk =   0.0104167
        k(    8) = (   0.0312500   0.5593081   0.0000000), wk =   0.0104167
        k(    9) = (   0.0312500  -0.5232237   0.0000000), wk =   0.0104167
        k(   10) = (   0.0312500  -0.4510549   0.0000000), wk =   0.0104167
        k(   11) = (   0.0312500  -0.3788861   0.0000000), wk =   0.0104167
        k(   12) = (   0.0312500  -0.3067173   0.0000000), wk =   0.0104167
        k(   13) = (   0.0312500  -0.2345485   0.0000000), wk =   0.0104167
        k(   14) = (   0.0312500  -0.1623798   0.0000000), wk =   0.0104167
        k(   15) = (   0.0312500  -0.0902110   0.0000000), wk =   0.0104167
        k(   16) = (   0.0312500  -0.0180422   0.0000000), wk =   0.0104167
        k(   17) = (   0.0937500   0.1623798   0.0000000), wk =   0.0104167
        k(   18) = (   0.0937500   0.2345485   0.0000000), wk =   0.0104167
        k(   19) = (   0.0937500   0.3067173   0.0000000), wk =   0.0104167
        k(   20) = (   0.0937500   0.3788861   0.0000000), wk =   0.0104167
        k(   21) = (   0.0937500   0.4510549   0.0000000), wk =   0.0104167
        k(   22) = (   0.0937500   0.5232237   0.0000000), wk =   0.0104167
        k(   23) = (   0.0937500   0.5953925   0.0000000), wk =   0.0104167
        k(   24) = (   0.0937500  -0.4871393   0.0000000), wk =   0.0104167
        k(   25) = (   0.0937500  -0.4149705   0.0000000), wk =   0.0104167
        k(   26) = (   0.0937500  -0.3428017   0.0000000), wk =   0.0104167
        k(   27) = (   0.0937500  -0.2706329   0.0000000), wk =   0.0104167
        k(   28) = (   0.0937500  -0.1984642   0.0000000), wk =   0.0104167
        k(   29) = (   0.0937500  -0.1262954   0.0000000), wk =   0.0104167
        k(   30) = (   0.0937500  -0.0541266   0.0000000), wk =   0.0104167
        k(   31) = (   0.1562500   0.2706329   0.0000000), wk =   0.0104167
        k(   32) = (   0.1562500   0.3428017   0.0000000), wk =   0.0104167
        k(   33) = (   0.1562500   0.4149705   0.0000000), wk =   0.0104167
        k(   34) = (   0.1562500   0.4871393   0.0000000), wk =   0.0104167
        k(   35) = (   0.1562500   0.5593081   0.0000000), wk =   0.0104167
        k(   36) = (   0.1562500   0.6314769   0.0000000), wk =   0.0104167
        k(   37) = (   0.1562500  -0.4510549   0.0000000), wk =   0.0104167
        k(   38) = (   0.1562500  -0.3788861   0.0000000), wk =   0.0104167
        k(   39) = (   0.1562500  -0.3067173   0.0000000), wk =   0.0104167
        k(   40) = (   0.1562500  -0.2345485   0.0000000), wk =   0.0104167
        k(   41) = (   0.1562500  -0.1623798   0.0000000), wk =   0.0104167
        k(   42) = (   0.1562500  -0.0902110   0.0000000), wk =   0.0104167
        k(   43) = (   0.2187500   0.3788861   0.0000000), wk =   0.0104167
        k(   44) = (   0.2187500   0.4510549   0.0000000), wk =   0.0104167
        k(   45) = (   0.2187500   0.5232237   0.0000000), wk =   0.0104167
        k(   46) = (   0.2187500   0.5953925   0.0000000), wk =   0.0104167
        k(   47) = (   0.2187500   0.6675612   0.0000000), wk =   0.0104167
        k(   48) = (   0.2187500  -0.4149705   0.0000000), wk =   0.0104167
        k(   49) = (   0.2187500  -0.3428017   0.0000000), wk =   0.0104167
        k(   50) = (   0.2187500  -0.2706329   0.0000000), wk =   0.0104167
        k(   51) = (   0.2187500  -0.1984642   0.0000000), wk =   0.0104167
        k(   52) = (   0.2187500  -0.1262954   0.0000000), wk =   0.0104167
        k(   53) = (   0.2812500   0.4871393   0.0000000), wk =   0.0104167
        k(   54) = (   0.2812500   0.5593081   0.0000000), wk =   0.0104167
        k(   55) = (   0.2812500   0.6314769   0.0000000), wk =   0.0104167
        k(   56) = (   0.2812500   0.7036456   0.0000000), wk =   0.0104167
        k(   57) = (   0.2812500  -0.3788861   0.0000000), wk =   0.0104167
        k(   58) = (   0.2812500  -0.3067173   0.0000000), wk =   0.0104167
        k(   59) = (   0.2812500  -0.2345485   0.0000000), wk =   0.0104167
        k(   60) = (   0.2812500  -0.1623798   0.0000000), wk =   0.0104167
        k(   61) = (   0.3437500   0.5953925   0.0000000), wk =   0.0104167
        k(   62) = (   0.3437500   0.6675612   0.0000000), wk =   0.0104167
        k(   63) = (   0.3437500   0.7397300   0.0000000), wk =   0.0104167
        k(   64) = (   0.3437500  -0.3428017   0.0000000), wk =   0.0104167
        k(   65) = (   0.3437500  -0.2706329   0.0000000), wk =   0.0104167
        k(   66) = (   0.3437500  -0.1984642   0.0000000), wk =   0.0104167
        k(   67) = (   0.4062500   0.7036456   0.0000000), wk =   0.0104167
        k(   68) = (   0.4062500   0.7758144   0.0000000), wk =   0.0104167
        k(   69) = (   0.4062500  -0.3067173   0.0000000), wk =   0.0104167
        k(   70) = (   0.4062500  -0.2345485   0.0000000), wk =   0.0104167
        k(   71) = (   0.4687500   0.8118988   0.0000000), wk =   0.0104167
        k(   72) = (   0.4687500  -0.2706329   0.0000000), wk =   0.0104167
        k(   73) = (   0.0625000  -0.0000000   0.0000000), wk =   0.0052083
        k(   74) = (  -0.0937500   0.0902110   0.0000000), wk =   0.0104167
        k(   75) = (   0.1250000   0.0360844   0.0000000), wk =   0.0104167
        k(   76) = (  -0.1562500   0.1262954   0.0000000), wk =   0.0104167
        k(   77) = (   0.1875000   0.0721688   0.0000000), wk =   0.0104167
        k(   78) = (  -0.2187500   0.1623798   0.0000000), wk =   0.0104167
        k(   79) = (   0.2500000   0.1082532   0.0000000), wk =   0.0104167
        k(   80) = (  -0.2812500   0.1984642   0.0000000), wk =   0.0104167
        k(   81) = (   0.3125000   0.1443376   0.0000000), wk =   0.0104167
        k(   82) = (  -0.3437500   0.2345485   0.0000000), wk =   0.0104167
        k(   83) = (   0.3750000   0.1804220   0.0000000), wk =   0.0104167
        k(   84) = (  -0.4062500   0.2706329   0.0000000), wk =   0.0104167
        k(   85) = (   0.4375000   0.2165064   0.0000000), wk =   0.0104167
        k(   86) = (  -0.4687500   0.3067173   0.0000000), wk =   0.0104167
        k(   87) = (   0.5000000   0.2525907   0.0000000), wk =   0.0104167
        k(   88) = (   0.4687500  -0.2345485   0.0000000), wk =   0.0104167
        k(   89) = (  -0.4375000  -0.2886751   0.0000000), wk =   0.0104167
        k(   90) = (   0.4062500  -0.1984642   0.0000000), wk =   0.0104167
        k(   91) = (  -0.3750000  -0.2525907   0.0000000), wk =   0.0104167
        k(   92) = (   0.3437500  -0.1623798   0.0000000), wk =   0.0104167
        k(   93) = (  -0.3125000  -0.2165064   0.0000000), wk =   0.0104167
        k(   94) = (   0.2812500  -0.1262954   0.0000000), wk =   0.0104167
        k(   95) = (  -0.2500000  -0.1804220   0.0000000), wk =   0.0104167
        k(   96) = (   0.2187500  -0.0902110   0.0000000), wk =   0.0104167
        k(   97) = (  -0.1875000  -0.1443376   0.0000000), wk =   0.0104167
        k(   98) = (   0.1562500  -0.0541266   0.0000000), wk =   0.0104167
        k(   99) = (  -0.1250000  -0.1082532   0.0000000), wk =   0.0104167
        k(  100) = (   0.0937500  -0.0180422   0.0000000), wk =   0.0104167
        k(  101) = (  -0.0625000  -0.0721688   0.0000000), wk =   0.0104167
        k(  102) = (   0.0000000  -0.0360844   0.0000000), wk =   0.0052083
        k(  103) = (   0.1875000  -0.0000000   0.0000000), wk =   0.0052083
        k(  104) = (  -0.1562500   0.1984642   0.0000000), wk =   0.0104167
        k(  105) = (   0.2500000   0.0360844   0.0000000), wk =   0.0104167
        k(  106) = (  -0.2187500   0.2345485   0.0000000), wk =   0.0104167
        k(  107) = (   0.3125000   0.0721688   0.0000000), wk =   0.0104167
        k(  108) = (  -0.2812500   0.2706329   0.0000000), wk =   0.0104167
        k(  109) = (   0.3750000   0.1082532   0.0000000), wk =   0.0104167
        k(  110) = (  -0.3437500   0.3067173   0.0000000), wk =   0.0104167
        k(  111) = (   0.4375000   0.1443376   0.0000000), wk =   0.0104167
        k(  112) = (  -0.4062500   0.3428017   0.0000000), wk =   0.0104167
        k(  113) = (   0.5000000   0.1804220   0.0000000), wk =   0.0104167
        k(  114) = (  -0.4687500   0.3788861   0.0000000), wk =   0.0104167
        k(  115) = (   0.5625000   0.2165064   0.0000000), wk =   0.0104167
        k(  116) = (   0.4687500  -0.1623798   0.0000000), wk =   0.0104167
        k(  117) = (  -0.3750000  -0.3247595   0.0000000), wk =   0.0104167
        k(  118) = (   0.4062500  -0.1262954   0.0000000), wk =   0.0104167
        k(  119) = (  -0.3125000  -0.2886751   0.0000000), wk =   0.0104167
        k(  120) = (   0.3437500  -0.0902110   0.0000000), wk =   0.0104167
        k(  121) = (  -0.2500000  -0.2525907   0.0000000), wk =   0.0104167
        k(  122) = (   0.2812500  -0.0541266   0.0000000), wk =   0.0104167
        k(  123) = (  -0.1875000  -0.2165064   0.0000000), wk =   0.0104167
        k(  124) = (   0.2187500  -0.0180422   0.0000000), wk =   0.0104167
        k(  125) = (  -0.1250000  -0.1804220   0.0000000), wk =   0.0104167
        k(  126) = (   0.1562500   0.0180422   0.0000000), wk =   0.0104167
        k(  127) = (  -0.0625000  -0.1443376   0.0000000), wk =   0.0104167
        k(  128) = (   0.0000000  -0.1082532   0.0000000), wk =   0.0052083
        k(  129) = (   0.3125000   0.0000000   0.0000000), wk =   0.0052083
        k(  130) = (  -0.2187500   0.3067173   0.0000000), wk =   0.0104167
        k(  131) = (   0.3750000   0.0360844   0.0000000), wk =   0.0104167
        k(  132) = (  -0.2812500   0.3428017   0.0000000), wk =   0.0104167
        k(  133) = (   0.4375000   0.0721688   0.0000000), wk =   0.0104167
        k(  134) = (  -0.3437500   0.3788861   0.0000000), wk =   0.0104167
        k(  135) = (   0.5000000   0.1082532   0.0000000), wk =   0.0104167
        k(  136) = (  -0.4062500   0.4149705   0.0000000), wk =   0.0104167
        k(  137) = (   0.5625000   0.1443376   0.0000000), wk =   0.0104167
        k(  138) = (  -0.4687500   0.4510549   0.0000000), wk =   0.0104167
        k(  139) = (   0.6250000   0.1804220   0.0000000), wk =   0.0104167
        k(  140) = (   0.4687500  -0.0902110   0.0000000), wk =   0.0104167
        k(  141) = (  -0.3125000  -0.3608439   0.0000000), wk =   0.0104167
        k(  142) = (   0.4062500  -0.0541266   0.0000000), wk =   0.0104167
        k(  143) = (  -0.2500000  -0.3247595   0.0000000), wk =   0.0104167
        k(  144) = (   0.3437500  -0.0180422   0.0000000), wk =   0.0104167
        k(  145) = (  -0.1875000  -0.2886751   0.0000000), wk =   0.0104167
        k(  146) = (   0.2812500   0.0180422   0.0000000), wk =   0.0104167
        k(  147) = (  -0.1250000  -0.2525907   0.0000000), wk =   0.0104167
        k(  148) = (   0.2187500   0.0541266   0.0000000), wk =   0.0104167
        k(  149) = (  -0.0625000  -0.2165064   0.0000000), wk =   0.0104167
        k(  150) = (   0.0000000  -0.1804220   0.0000000), wk =   0.0052083
        k(  151) = (   0.4375000   0.0000000   0.0000000), wk =   0.0052083
        k(  152) = (  -0.2812500   0.4149705   0.0000000), wk =   0.0104167
        k(  153) = (   0.5000000   0.0360844   0.0000000), wk =   0.0104167
        k(  154) = (  -0.3437500   0.4510549   0.0000000), wk =   0.0104167
        k(  155) = (   0.5625000   0.0721688   0.0000000), wk =   0.0104167
        k(  156) = (  -0.4062500   0.4871393   0.0000000), wk =   0.0104167
        k(  157) = (   0.6250000   0.1082532   0.0000000), wk =   0.0104167
        k(  158) = (  -0.4687500   0.5232237   0.0000000), wk =   0.0104167
        k(  159) = (   0.6875000   0.1443376   0.0000000), wk =   0.0104167
        k(  160) = (   0.4687500  -0.0180422   0.0000000), wk =   0.0104167
        k(  161) = (  -0.2500000  -0.3969283   0.0000000), wk =   0.0104167
        k(  162) = (   0.4062500   0.0180422   0.0000000), wk =   0.0104167
        k(  163) = (  -0.1875000  -0.3608439   0.0000000), wk =   0.0104167
        k(  164) = (   0.3437500   0.0541266   0.0000000), wk =   0.0104167
        k(  165) = (  -0.1250000  -0.3247595   0.0000000), wk =   0.0104167
        k(  166) = (   0.2812500   0.0902110   0.0000000), wk =   0.0104167
        k(  167) = (  -0.0625000  -0.2886751   0.0000000), wk =   0.0104167
        k(  168) = (   0.0000000  -0.2525907   0.0000000), wk =   0.0052083
        k(  169) = (   0.5625000   0.0000000   0.0000000), wk =   0.0052083
        k(  170) = (  -0.3437500   0.5232237   0.0000000), wk =   0.0104167
        k(  171) = (   0.6250000   0.0360844   0.0000000), wk =   0.0104167
        k(  172) = (  -0.4062500   0.5593081   0.0000000), wk =   0.0104167
        k(  173) = (   0.6875000   0.0721688   0.0000000), wk =   0.0104167
        k(  174) = (  -0.4687500   0.5953925   0.0000000), wk =   0.0104167
        k(  175) = (   0.7500000   0.1082532   0.0000000), wk =   0.0104167
        k(  176) = (   0.4687500   0.0541266   0.0000000), wk =   0.0104167
        k(  177) = (  -0.1875000  -0.4330127   0.0000000), wk =   0.0104167
        k(  178) = (   0.4062500   0.0902110   0.0000000), wk =   0.0104167
        k(  179) = (  -0.1250000  -0.3969283   0.0000000), wk =   0.0104167
        k(  180) = (   0.3437500   0.1262954   0.0000000), wk =   0.0104167
        k(  181) = (  -0.0625000  -0.3608439   0.0000000), wk =   0.0104167
        k(  182) = (   0.0000000  -0.3247595   0.0000000), wk =   0.0052083
        k(  183) = (   0.6875000  -0.0000000   0.0000000), wk =   0.0052083
        k(  184) = (  -0.4062500   0.6314769   0.0000000), wk =   0.0104167
        k(  185) = (   0.7500000   0.0360844   0.0000000), wk =   0.0104167
        k(  186) = (  -0.4687500   0.6675612   0.0000000), wk =   0.0104167
        k(  187) = (   0.8125000   0.0721688   0.0000000), wk =   0.0104167
        k(  188) = (   0.4687500   0.1262954   0.0000000), wk =   0.0104167
        k(  189) = (  -0.1250000  -0.4690971   0.0000000), wk =   0.0104167
        k(  190) = (   0.4062500   0.1623798   0.0000000), wk =   0.0104167
        k(  191) = (  -0.0625000  -0.4330127   0.0000000), wk =   0.0104167
        k(  192) = (   0.0000000  -0.3969283   0.0000000), wk =   0.0052083
        k(  193) = (   0.8125000  -0.0000000   0.0000000), wk =   0.0052083
        k(  194) = (  -0.4687500   0.7397300   0.0000000), wk =   0.0104167
        k(  195) = (   0.8750000   0.0360844   0.0000000), wk =   0.0104167
        k(  196) = (   0.4687500   0.1984642   0.0000000), wk =   0.0104167
        k(  197) = (  -0.0625000  -0.5051815   0.0000000), wk =   0.0104167
        k(  198) = (   0.0000000  -0.4690971   0.0000000), wk =   0.0052083
        k(  199) = (   0.9375000   0.0000000   0.0000000), wk =   0.0052083
        k(  200) = (   0.0000000  -0.5412659   0.0000000), wk =   0.0052083

                       cryst. coord.
        k(    1) = (   0.0312500   0.0312500   0.0000000), wk =   0.0104167
        k(    2) = (   0.0312500   0.0937500   0.0000000), wk =   0.0104167
        k(    3) = (   0.0312500   0.1562500   0.0000000), wk =   0.0104167
        k(    4) = (   0.0312500   0.2187500   0.0000000), wk =   0.0104167
        k(    5) = (   0.0312500   0.2812500   0.0000000), wk =   0.0104167
        k(    6) = (   0.0312500   0.3437500   0.0000000), wk =   0.0104167
        k(    7) = (   0.0312500   0.4062500   0.0000000), wk =   0.0104167
        k(    8) = (   0.0312500   0.4687500   0.0000000), wk =   0.0104167
        k(    9) = (   0.0312500  -0.4687500   0.0000000), wk =   0.0104167
        k(   10) = (   0.0312500  -0.4062500   0.0000000), wk =   0.0104167
        k(   11) = (   0.0312500  -0.3437500   0.0000000), wk =   0.0104167
        k(   12) = (   0.0312500  -0.2812500   0.0000000), wk =   0.0104167
        k(   13) = (   0.0312500  -0.2187500   0.0000000), wk =   0.0104167
        k(   14) = (   0.0312500  -0.1562500   0.0000000), wk =   0.0104167
        k(   15) = (   0.0312500  -0.0937500   0.0000000), wk =   0.0104167
        k(   16) = (   0.0312500  -0.0312500   0.0000000), wk =   0.0104167
        k(   17) = (   0.0937500   0.0937500   0.0000000), wk =   0.0104167
        k(   18) = (   0.0937500   0.1562500   0.0000000), wk =   0.0104167
        k(   19) = (   0.0937500   0.2187500   0.0000000), wk =   0.0104167
        k(   20) = (   0.0937500   0.2812500   0.0000000), wk =   0.0104167
        k(   21) = (   0.0937500   0.3437500   0.0000000), wk =   0.0104167
        k(   22) = (   0.0937500   0.4062500   0.0000000), wk =   0.0104167
        k(   23) = (   0.0937500   0.4687500   0.0000000), wk =   0.0104167
        k(   24) = (   0.0937500  -0.4687500   0.0000000), wk =   0.0104167
        k(   25) = (   0.0937500  -0.4062500   0.0000000), wk =   0.0104167
        k(   26) = (   0.0937500  -0.3437500   0.0000000), wk =   0.0104167
        k(   27) = (   0.0937500  -0.2812500   0.0000000), wk =   0.0104167
        k(   28) = (   0.0937500  -0.2187500   0.0000000), wk =   0.0104167
        k(   29) = (   0.0937500  -0.1562500   0.0000000), wk =   0.0104167
        k(   30) = (   0.0937500  -0.0937500   0.0000000), wk =   0.0104167
        k(   31) = (   0.1562500   0.1562500   0.0000000), wk =   0.0104167
        k(   32) = (   0.1562500   0.2187500   0.0000000), wk =   0.0104167
        k(   33) = (   0.1562500   0.2812500   0.0000000), wk =   0.0104167
        k(   34) = (   0.1562500   0.3437500   0.0000000), wk =   0.0104167
        k(   35) = (   0.1562500   0.4062500   0.0000000), wk =   0.0104167
        k(   36) = (   0.1562500   0.4687500   0.0000000), wk =   0.0104167
        k(   37) = (   0.1562500  -0.4687500   0.0000000), wk =   0.0104167
        k(   38) = (   0.1562500  -0.4062500   0.0000000), wk =   0.0104167
        k(   39) = (   0.1562500  -0.3437500   0.0000000), wk =   0.0104167
        k(   40) = (   0.1562500  -0.2812500   0.0000000), wk =   0.0104167
        k(   41) = (   0.1562500  -0.2187500   0.0000000), wk =   0.0104167
        k(   42) = (   0.1562500  -0.1562500   0.0000000), wk =   0.0104167
        k(   43) = (   0.2187500   0.2187500   0.0000000), wk =   0.0104167
        k(   44) = (   0.2187500   0.2812500   0.0000000), wk =   0.0104167
        k(   45) = (   0.2187500   0.3437500   0.0000000), wk =   0.0104167
        k(   46) = (   0.2187500   0.4062500   0.0000000), wk =   0.0104167
        k(   47) = (   0.2187500   0.4687500   0.0000000), wk =   0.0104167
        k(   48) = (   0.2187500  -0.4687500   0.0000000), wk =   0.0104167
        k(   49) = (   0.2187500  -0.4062500   0.0000000), wk =   0.0104167
        k(   50) = (   0.2187500  -0.3437500   0.0000000), wk =   0.0104167
        k(   51) = (   0.2187500  -0.2812500   0.0000000), wk =   0.0104167
        k(   52) = (   0.2187500  -0.2187500   0.0000000), wk =   0.0104167
        k(   53) = (   0.2812500   0.2812500   0.0000000), wk =   0.0104167
        k(   54) = (   0.2812500   0.3437500   0.0000000), wk =   0.0104167
        k(   55) = (   0.2812500   0.4062500   0.0000000), wk =   0.0104167
        k(   56) = (   0.2812500   0.4687500   0.0000000), wk =   0.0104167
        k(   57) = (   0.2812500  -0.4687500   0.0000000), wk =   0.0104167
        k(   58) = (   0.2812500  -0.4062500   0.0000000), wk =   0.0104167
        k(   59) = (   0.2812500  -0.3437500   0.0000000), wk =   0.0104167
        k(   60) = (   0.2812500  -0.2812500   0.0000000), wk =   0.0104167
        k(   61) = (   0.3437500   0.3437500   0.0000000), wk =   0.0104167
        k(   62) = (   0.3437500   0.4062500   0.0000000), wk =   0.0104167
        k(   63) = (   0.3437500   0.4687500   0.0000000), wk =   0.0104167
        k(   64) = (   0.3437500  -0.4687500   0.0000000), wk =   0.0104167
        k(   65) = (   0.3437500  -0.4062500   0.0000000), wk =   0.0104167
        k(   66) = (   0.3437500  -0.3437500   0.0000000), wk =   0.0104167
        k(   67) = (   0.4062500   0.4062500   0.0000000), wk =   0.0104167
        k(   68) = (   0.4062500   0.4687500   0.0000000), wk =   0.0104167
        k(   69) = (   0.4062500  -0.4687500   0.0000000), wk =   0.0104167
        k(   70) = (   0.4062500  -0.4062500   0.0000000), wk =   0.0104167
        k(   71) = (   0.4687500   0.4687500   0.0000000), wk =   0.0104167
        k(   72) = (   0.4687500  -0.4687500   0.0000000), wk =   0.0104167
        k(   73) = (   0.0625000  -0.0312500   0.0000000), wk =   0.0052083
        k(   74) = (  -0.0937500   0.1250000   0.0000000), wk =   0.0104167
        k(   75) = (   0.1250000  -0.0312500   0.0000000), wk =   0.0104167
        k(   76) = (  -0.1562500   0.1875000   0.0000000), wk =   0.0104167
        k(   77) = (   0.1875000  -0.0312500   0.0000000), wk =   0.0104167
        k(   78) = (  -0.2187500   0.2500000   0.0000000), wk =   0.0104167
        k(   79) = (   0.2500000  -0.0312500   0.0000000), wk =   0.0104167
        k(   80) = (  -0.2812500   0.3125000   0.0000000), wk =   0.0104167
        k(   81) = (   0.3125000  -0.0312500   0.0000000), wk =   0.0104167
        k(   82) = (  -0.3437500   0.3750000   0.0000000), wk =   0.0104167
        k(   83) = (   0.3750000  -0.0312500   0.0000000), wk =   0.0104167
        k(   84) = (  -0.4062500   0.4375000   0.0000000), wk =   0.0104167
        k(   85) = (   0.4375000  -0.0312500   0.0000000), wk =   0.0104167
        k(   86) = (  -0.4687500   0.5000000   0.0000000), wk =   0.0104167
        k(   87) = (   0.5000000  -0.0312500   0.0000000), wk =   0.0104167
        k(   88) = (   0.4687500  -0.4375000   0.0000000), wk =   0.0104167
        k(   89) = (  -0.4375000  -0.0312500   0.0000000), wk =   0.0104167
        k(   90) = (   0.4062500  -0.3750000   0.0000000), wk =   0.0104167
        k(   91) = (  -0.3750000  -0.0312500   0.0000000), wk =   0.0104167
        k(   92) = (   0.3437500  -0.3125000   0.0000000), wk =   0.0104167
        k(   93) = (  -0.3125000  -0.0312500   0.0000000), wk =   0.0104167
        k(   94) = (   0.2812500  -0.2500000   0.0000000), wk =   0.0104167
        k(   95) = (  -0.2500000  -0.0312500   0.0000000), wk =   0.0104167
        k(   96) = (   0.2187500  -0.1875000   0.0000000), wk =   0.0104167
        k(   97) = (  -0.1875000  -0.0312500   0.0000000), wk =   0.0104167
        k(   98) = (   0.1562500  -0.1250000   0.0000000), wk =   0.0104167
        k(   99) = (  -0.1250000  -0.0312500   0.0000000), wk =   0.0104167
        k(  100) = (   0.0937500  -0.0625000   0.0000000), wk =   0.0104167
        k(  101) = (  -0.0625000  -0.0312500   0.0000000), wk =   0.0104167
        k(  102) = (   0.0000000  -0.0312500   0.0000000), wk =   0.0052083
        k(  103) = (   0.1875000  -0.0937500   0.0000000), wk =   0.0052083
        k(  104) = (  -0.1562500   0.2500000   0.0000000), wk =   0.0104167
        k(  105) = (   0.2500000  -0.0937500   0.0000000), wk =   0.0104167
        k(  106) = (  -0.2187500   0.3125000   0.0000000), wk =   0.0104167
        k(  107) = (   0.3125000  -0.0937500   0.0000000), wk =   0.0104167
        k(  108) = (  -0.2812500   0.3750000   0.0000000), wk =   0.0104167
        k(  109) = (   0.3750000  -0.0937500   0.0000000), wk =   0.0104167
        k(  110) = (  -0.3437500   0.4375000   0.0000000), wk =   0.0104167
        k(  111) = (   0.4375000  -0.0937500   0.0000000), wk =   0.0104167
        k(  112) = (  -0.4062500   0.5000000   0.0000000), wk =   0.0104167
        k(  113) = (   0.5000000  -0.0937500   0.0000000), wk =   0.0104167
        k(  114) = (  -0.4687500   0.5625000   0.0000000), wk =   0.0104167
        k(  115) = (   0.5625000  -0.0937500   0.0000000), wk =   0.0104167
        k(  116) = (   0.4687500  -0.3750000   0.0000000), wk =   0.0104167
        k(  117) = (  -0.3750000  -0.0937500   0.0000000), wk =   0.0104167
        k(  118) = (   0.4062500  -0.3125000   0.0000000), wk =   0.0104167
        k(  119) = (  -0.3125000  -0.0937500   0.0000000), wk =   0.0104167
        k(  120) = (   0.3437500  -0.2500000   0.0000000), wk =   0.0104167
        k(  121) = (  -0.2500000  -0.0937500   0.0000000), wk =   0.0104167
        k(  122) = (   0.2812500  -0.1875000   0.0000000), wk =   0.0104167
        k(  123) = (  -0.1875000  -0.0937500   0.0000000), wk =   0.0104167
        k(  124) = (   0.2187500  -0.1250000   0.0000000), wk =   0.0104167
        k(  125) = (  -0.1250000  -0.0937500   0.0000000), wk =   0.0104167
        k(  126) = (   0.1562500  -0.0625000   0.0000000), wk =   0.0104167
        k(  127) = (  -0.0625000  -0.0937500   0.0000000), wk =   0.0104167
        k(  128) = (   0.0000000  -0.0937500   0.0000000), wk =   0.0052083
        k(  129) = (   0.3125000  -0.1562500   0.0000000), wk =   0.0052083
        k(  130) = (  -0.2187500   0.3750000   0.0000000), wk =   0.0104167
        k(  131) = (   0.3750000  -0.1562500   0.0000000), wk =   0.0104167
        k(  132) = (  -0.2812500   0.4375000   0.0000000), wk =   0.0104167
        k(  133) = (   0.4375000  -0.1562500   0.0000000), wk =   0.0104167
        k(  134) = (  -0.3437500   0.5000000   0.0000000), wk =   0.0104167
        k(  135) = (   0.5000000  -0.1562500   0.0000000), wk =   0.0104167
        k(  136) = (  -0.4062500   0.5625000   0.0000000), wk =   0.0104167
        k(  137) = (   0.5625000  -0.1562500   0.0000000), wk =   0.0104167
        k(  138) = (  -0.4687500   0.6250000   0.0000000), wk =   0.0104167
        k(  139) = (   0.6250000  -0.1562500   0.0000000), wk =   0.0104167
        k(  140) = (   0.4687500  -0.3125000   0.0000000), wk =   0.0104167
        k(  141) = (  -0.3125000  -0.1562500   0.0000000), wk =   0.0104167
        k(  142) = (   0.4062500  -0.2500000   0.0000000), wk =   0.0104167
        k(  143) = (  -0.2500000  -0.1562500   0.0000000), wk =   0.0104167
        k(  144) = (   0.3437500  -0.1875000   0.0000000), wk =   0.0104167
        k(  145) = (  -0.1875000  -0.1562500   0.0000000), wk =   0.0104167
        k(  146) = (   0.2812500  -0.1250000   0.0000000), wk =   0.0104167
        k(  147) = (  -0.1250000  -0.1562500   0.0000000), wk =   0.0104167
        k(  148) = (   0.2187500  -0.0625000   0.0000000), wk =   0.0104167
        k(  149) = (  -0.0625000  -0.1562500   0.0000000), wk =   0.0104167
        k(  150) = (   0.0000000  -0.1562500   0.0000000), wk =   0.0052083
        k(  151) = (   0.4375000  -0.2187500   0.0000000), wk =   0.0052083
        k(  152) = (  -0.2812500   0.5000000   0.0000000), wk =   0.0104167
        k(  153) = (   0.5000000  -0.2187500   0.0000000), wk =   0.0104167
        k(  154) = (  -0.3437500   0.5625000   0.0000000), wk =   0.0104167
        k(  155) = (   0.5625000  -0.2187500   0.0000000), wk =   0.0104167
        k(  156) = (  -0.4062500   0.6250000   0.0000000), wk =   0.0104167
        k(  157) = (   0.6250000  -0.2187500   0.0000000), wk =   0.0104167
        k(  158) = (  -0.4687500   0.6875000   0.0000000), wk =   0.0104167
        k(  159) = (   0.6875000  -0.2187500   0.0000000), wk =   0.0104167
        k(  160) = (   0.4687500  -0.2500000   0.0000000), wk =   0.0104167
        k(  161) = (  -0.2500000  -0.2187500   0.0000000), wk =   0.0104167
        k(  162) = (   0.4062500  -0.1875000   0.0000000), wk =   0.0104167
        k(  163) = (  -0.1875000  -0.2187500   0.0000000), wk =   0.0104167
        k(  164) = (   0.3437500  -0.1250000   0.0000000), wk =   0.0104167
        k(  165) = (  -0.1250000  -0.2187500   0.0000000), wk =   0.0104167
        k(  166) = (   0.2812500  -0.0625000   0.0000000), wk =   0.0104167
        k(  167) = (  -0.0625000  -0.2187500   0.0000000), wk =   0.0104167
        k(  168) = (   0.0000000  -0.2187500   0.0000000), wk =   0.0052083
        k(  169) = (   0.5625000  -0.2812500   0.0000000), wk =   0.0052083
        k(  170) = (  -0.3437500   0.6250000   0.0000000), wk =   0.0104167
        k(  171) = (   0.6250000  -0.2812500   0.0000000), wk =   0.0104167
        k(  172) = (  -0.4062500   0.6875000   0.0000000), wk =   0.0104167
        k(  173) = (   0.6875000  -0.2812500   0.0000000), wk =   0.0104167
        k(  174) = (  -0.4687500   0.7500000   0.0000000), wk =   0.0104167
        k(  175) = (   0.7500000  -0.2812500   0.0000000), wk =   0.0104167
        k(  176) = (   0.4687500  -0.1875000   0.0000000), wk =   0.0104167
        k(  177) = (  -0.1875000  -0.2812500   0.0000000), wk =   0.0104167
        k(  178) = (   0.4062500  -0.1250000   0.0000000), wk =   0.0104167
        k(  179) = (  -0.1250000  -0.2812500   0.0000000), wk =   0.0104167
        k(  180) = (   0.3437500  -0.0625000   0.0000000), wk =   0.0104167
        k(  181) = (  -0.0625000  -0.2812500   0.0000000), wk =   0.0104167
        k(  182) = (   0.0000000  -0.2812500   0.0000000), wk =   0.0052083
        k(  183) = (   0.6875000  -0.3437500   0.0000000), wk =   0.0052083
        k(  184) = (  -0.4062500   0.7500000   0.0000000), wk =   0.0104167
        k(  185) = (   0.7500000  -0.3437500   0.0000000), wk =   0.0104167
        k(  186) = (  -0.4687500   0.8125000   0.0000000), wk =   0.0104167
        k(  187) = (   0.8125000  -0.3437500   0.0000000), wk =   0.0104167
        k(  188) = (   0.4687500  -0.1250000   0.0000000), wk =   0.0104167
        k(  189) = (  -0.1250000  -0.3437500   0.0000000), wk =   0.0104167
        k(  190) = (   0.4062500  -0.0625000   0.0000000), wk =   0.0104167
        k(  191) = (  -0.0625000  -0.3437500   0.0000000), wk =   0.0104167
        k(  192) = (   0.0000000  -0.3437500   0.0000000), wk =   0.0052083
        k(  193) = (   0.8125000  -0.4062500   0.0000000), wk =   0.0052083
        k(  194) = (  -0.4687500   0.8750000   0.0000000), wk =   0.0104167
        k(  195) = (   0.8750000  -0.4062500   0.0000000), wk =   0.0104167
        k(  196) = (   0.4687500  -0.0625000   0.0000000), wk =   0.0104167
        k(  197) = (  -0.0625000  -0.4062500   0.0000000), wk =   0.0104167
        k(  198) = (   0.0000000  -0.4062500   0.0000000), wk =   0.0052083
        k(  199) = (   0.9375000  -0.4687500   0.0000000), wk =   0.0052083
        k(  200) = (   0.0000000  -0.4687500   0.0000000), wk =   0.0052083

     Dense  grid:   136167 G-vectors     FFT dimensions: (  36,  36, 270)

     Smooth grid:    48207 G-vectors     FFT dimensions: (  24,  24, 192)

     Largest allocated arrays     est. size (Mb)     dimensions
        Kohn-Sham Wavefunctions         0.74 Mb     (    6073,    8)
        NL pseudopotentials             1.48 Mb     (    6073,   16)
        Each V/rho on FFT grid          5.34 Mb     (  349920)
        Each G-vector array             1.04 Mb     (  136167)
        G-vector shells                 0.03 Mb     (    4229)
     Largest temporary arrays     est. size (Mb)     dimensions
        Auxiliary wavefunctions         2.97 Mb     (    6073,   32)
        Each subspace H/S matrix        0.02 Mb     (      32,   32)
        Each <psi_i|beta_j> matrix      0.00 Mb     (      16,    8)
        Arrays for rho mixing          42.71 Mb     (  349920,    8)

     Initial potential from superposition of free atoms

     starting charge    7.99992, renormalised to    8.00000

     negative rho (up, down):  1.292E-05 0.000E+00
     Starting wfc are    8 randomized atomic wfcs

     total cpu time spent up to now is        8.0 secs

     per-process dynamical memory:   212.3 Mb

     Self-consistent Calculation

     iteration #  1     ecut=    64.00 Ry     beta=0.30
     Davidson diagonalization with overlap
     ethr =  1.00E-02,  avg # of iterations =  5.2

     negative rho (up, down):  5.287E-06 0.000E+00

     total cpu time spent up to now is       44.8 secs

     total energy              =     -22.87940339 Ry
     Harris-Foulkes estimate   =     -22.95837275 Ry
     estimated scf accuracy    <       0.21922726 Ry

     iteration #  2     ecut=    64.00 Ry     beta=0.30
     Davidson diagonalization with overlap
     ethr =  2.74E-03,  avg # of iterations =  1.2

     negative rho (up, down):  8.187E-06 0.000E+00

     total cpu time spent up to now is       64.0 secs

     total energy              =     -22.83376860 Ry
     Harris-Foulkes estimate   =     -22.88473922 Ry
     estimated scf accuracy    <       0.07916272 Ry

     iteration #  3     ecut=    64.00 Ry     beta=0.30
     Davidson diagonalization with overlap
     ethr =  9.90E-04,  avg # of iterations =  7.4

     negative rho (up, down):  7.219E-06 0.000E+00

     total cpu time spent up to now is       99.3 secs

     total energy              =     -22.85390105 Ry
     Harris-Foulkes estimate   =     -22.85553151 Ry
     estimated scf accuracy    <       0.00383908 Ry

     iteration #  4     ecut=    64.00 Ry     beta=0.30
     Davidson diagonalization with overlap
     ethr =  4.80E-05,  avg # of iterations =  6.6

     negative rho (up, down):  1.152E-05 0.000E+00

     total cpu time spent up to now is      128.6 secs

     total energy              =     -22.85395196 Ry
     Harris-Foulkes estimate   =     -22.85425508 Ry
     estimated scf accuracy    <       0.00091251 Ry

     iteration #  5     ecut=    64.00 Ry     beta=0.30
     Davidson diagonalization with overlap
     ethr =  1.14E-05,  avg # of iterations =  4.0

     negative rho (up, down):  1.134E-05 0.000E+00

     total cpu time spent up to now is      155.7 secs

     total energy              =     -22.85406525 Ry
     Harris-Foulkes estimate   =     -22.85415738 Ry
     estimated scf accuracy    <       0.00013677 Ry

     iteration #  6     ecut=    64.00 Ry     beta=0.30
     Davidson diagonalization with overlap
     ethr =  1.71E-06,  avg # of iterations =  3.8

     negative rho (up, down):  1.106E-05 0.000E+00

     total cpu time spent up to now is      181.6 secs

     total energy              =     -22.85409344 Ry
     Harris-Foulkes estimate   =     -22.85409343 Ry
     estimated scf accuracy    <       0.00000019 Ry

     iteration #  7     ecut=    64.00 Ry     beta=0.30
     Davidson diagonalization with overlap
     ethr =  2.40E-09,  avg # of iterations =  4.5

     negative rho (up, down):  1.101E-05 0.000E+00

     total cpu time spent up to now is      210.2 secs

     total energy              =     -22.85409492 Ry
     Harris-Foulkes estimate   =     -22.85409480 Ry
     estimated scf accuracy    <       0.00000018 Ry

     iteration #  8     ecut=    64.00 Ry     beta=0.30
     Davidson diagonalization with overlap
     ethr =  2.19E-09,  avg # of iterations =  1.0

     negative rho (up, down):  1.090E-05 0.000E+00

     total cpu time spent up to now is      229.2 secs

     total energy              =     -22.85409493 Ry
     Harris-Foulkes estimate   =     -22.85409493 Ry
     estimated scf accuracy    <          9.0E-09 Ry

     iteration #  9     ecut=    64.00 Ry     beta=0.30
     Davidson diagonalization with overlap
     ethr =  1.13E-10,  avg # of iterations =  3.0

     negative rho (up, down):  1.080E-05 0.000E+00

     total cpu time spent up to now is      255.8 secs

     total energy              =     -22.85409493 Ry
     Harris-Foulkes estimate   =     -22.85409493 Ry
     estimated scf accuracy    <          6.4E-10 Ry

     iteration # 10     ecut=    64.00 Ry     beta=0.30
     Davidson diagonalization with overlap
     ethr =  8.05E-12,  avg # of iterations =  2.2

     negative rho (up, down):  1.073E-05 0.000E+00

     total cpu time spent up to now is      278.5 secs

     total energy              =     -22.85409493 Ry
     Harris-Foulkes estimate   =     -22.85409493 Ry
     estimated scf accuracy    <          7.3E-10 Ry

     iteration # 11     ecut=    64.00 Ry     beta=0.30
     Davidson diagonalization with overlap
     ethr =  8.05E-12,  avg # of iterations =  1.0

     negative rho (up, down):  1.069E-05 0.000E+00

     total cpu time spent up to now is      297.5 secs

     total energy              =     -22.85409493 Ry
     Harris-Foulkes estimate   =     -22.85409493 Ry
     estimated scf accuracy    <          1.0E-10 Ry

     iteration # 12     ecut=    64.00 Ry     beta=0.30
     Davidson diagonalization with overlap
     ethr =  1.25E-12,  avg # of iterations =  3.0

     negative rho (up, down):  1.066E-05 0.000E+00

     total cpu time spent up to now is      320.5 secs

     total energy              =     -22.85409493 Ry
     Harris-Foulkes estimate   =     -22.85409493 Ry
     estimated scf accuracy    <          6.7E-12 Ry

     iteration # 13     ecut=    64.00 Ry     beta=0.30
     Davidson diagonalization with overlap
     ethr =  1.00E-13,  avg # of iterations =  2.7

     negative rho (up, down):  1.059E-05 0.000E+00

     total cpu time spent up to now is      342.7 secs

     End of self-consistent calculation

          k = 0.0312 0.0541 0.0000 (  5971 PWs)   bands (ev):

   -21.8751 -10.2024  -5.9533  -5.8245   0.8846   1.8264   2.0929   3.0531

     occupation numbers 
     1.0000   1.0000   1.0000   1.0000   0.0000   0.0000   0.0000   0.0000

          k = 0.0312 0.1263 0.0000 (  5973 PWs)   bands (ev):

   -21.6458  -9.9256  -6.7784  -6.2783   1.1970   2.1441   2.4154   3.3716

     occupation numbers 
     1.0000   1.0000   1.0000   1.0000   0.0000   0.0000   0.0000   0.0000

          k = 0.0312 0.1985 0.0000 (  5959 PWs)   bands (ev):

   -21.2345  -9.4318  -8.0547  -6.9218   1.7591   2.7144   2.9961   3.9435

     occupation numbers 
     1.0000   1.0000   1.0000   1.0000   0.0000   0.0000   0.0000   0.0000

          k = 0.0312 0.2706 0.0000 (  5992 PWs)   bands (ev):

   -20.6439  -9.5798  -8.7302  -7.5960   2.5697   3.5284   3.8346   4.7342

     occupation numbers 
     1.0000   1.0000   1.0000   1.0000   0.0000   0.0000   0.0000   0.0000

          k = 0.0312 0.3428 0.0000 (  6016 PWs)   bands (ev):

   -19.8784 -11.2010  -8.1999  -7.8392   3.2691   3.6247   4.6411   4.9293

     occupation numbers 
     1.0000   1.0000   1.0000   1.0000   0.0000   0.0000   0.0000   0.0000

          k = 0.0312 0.4150 0.0000 (  6018 PWs)   bands (ev):

   -18.9457 -12.8174  -8.6753  -6.7995   1.5596   4.8873   5.2911   5.9470

     occupation numbers 
     1.0000   1.0000   1.0000   1.0000   0.0000   0.0000   0.0000   0.0000

          k = 0.0312 0.4871 0.0000 (  6026 PWs)   bands (ev):

   -17.8628 -14.3572  -8.9902  -5.7230   0.0119   5.0884   6.4852   7.4947

     occupation numbers 
     1.0000   1.0000   1.0000   1.0000   0.0000   0.0000   0.0000   0.0000

          k = 0.0312 0.5593 0.0000 (  6032 PWs)   bands (ev):

   -16.7546 -15.6661  -9.1278  -4.9859  -0.9365   5.0295   8.2300   9.1785

     occupation numbers 
     1.0000   1.0000   1.0000   1.0000   0.0000   0.0000   0.0000   0.0000

          k = 0.0312-0.5232 0.0000 (  6026 PWs)   bands (ev):

   -17.2840 -15.0695  -9.0817  -5.2675  -0.5839   5.0499   7.3317   8.3447

     occupation numbers 
     1.0000   1.0000   1.0000   1.0000   0.0000   0.0000   0.0000   0.0000

          k = 0.0312-0.4511 0.0000 (  6014 PWs)   bands (ev):

   -18.4211 -13.6012  -8.8542  -6.2527   0.7473   5.1317   5.7076   6.6931

     occupation numbers 
     1.0000   1.0000   1.0000   1.0000   0.0000   0.0000   0.0000   0.0000

          k = 0.0312-0.3789 0.0000 (  6028 PWs)   bands (ev):

   -19.4323 -12.0146  -8.4561  -7.3337   2.4106   4.2393   5.2605   5.3454

     occupation numbers 
     1.0000   1.0000   1.0000   1.0000   0.0000   0.0000   0.0000   0.0000

          k = 0.0312-0.3067 0.0000 (  6019 PWs)   bands (ev):

   -20.2826 -10.3857  -8.3066  -7.9112   3.0671   3.9318   4.2692   4.3504

     occupation numbers 
     1.0000   1.0000   1.0000   1.0000   0.0000   0.0000   0.0000   0.0000

          k = 0.0312-0.2345 0.0000 (  5980 PWs)   bands (ev):

   -20.9614  -9.1061  -8.7971  -7.2626   2.1335   3.0926   3.3832   4.3222

     occupation numbers 
     1.0000   1.0000   1.0000   1.0000   0.0000   0.0000   0.0000   0.0000

          k = 0.0312-0.1624 0.0000 (  5962 PWs)   bands (ev):

   -21.4627  -9.7054  -7.3736  -6.5876   1.4469   2.3978   2.6735   3.6261

     occupation numbers 
     1.0000   1.0000   1.0000   1.0000   0.0000   0.0000   0.0000   0.0000

          k = 0.0312-0.0902 0.0000 (  5958 PWs)   bands (ev):

   -21.7833 -10.0914  -6.2963  -6.0156   1.0095   1.9535   2.2219   3.1805

     occupation numbers 
     1.0000   1.0000   1.0000   1.0000   0.0000   0.0000   0.0000   0.0000

          k = 0.0312-0.0180 0.0000 (  5949 PWs)   bands (ev):

   -21.9210 -10.2579  -5.7673  -5.7306   0.8221   1.7628   2.0284   2.9893

     occupation numbers 
     1.0000   1.0000   1.0000   1.0000   0.0000   0.0000   0.0000   0.0000

          k = 0.0938 0.1624 0.0000 (  5962 PWs)   bands (ev):

   -21.3257  -9.5410  -7.6703  -6.9380   1.6345   2.5880   2.8671   3.8169

     occupation numbers 
     1.0000   1.0000   1.0000   1.0000   0.0000   0.0000   0.0000   0.0000

          k = 0.0938 0.2345 0.0000 (  5982 PWs)   bands (ev):

   -20.8252  -8.9439  -8.9103  -7.7208   2.3216   3.2828   3.5769   4.5136

     occupation numbers 
     1.0000   1.0000   1.0000   1.0000   0.0000   0.0000   0.0000   0.0000

          k = 0.0938 0.3067 0.0000 (  6013 PWs)   bands (ev):

   -20.1479 -10.3878  -8.4315  -8.1472   3.2558   3.9171   4.2724   4.5445

     occupation numbers 
     1.0000   1.0000   1.0000   1.0000   0.0000   0.0000   0.0000   0.0000

          k = 0.0938 0.3789 0.0000 (  6028 PWs)   bands (ev):

   -19.2999 -11.9568  -9.0052  -7.1772   2.2956   4.4320   5.4302   5.7671

     occupation numbers 
     1.0000   1.0000   1.0000   1.0000   0.0000   0.0000   0.0000   0.0000

          k = 0.0938 0.4511 0.0000 (  6026 PWs)   bands (ev):

   -18.2923 -13.5103  -9.4157  -6.0969   0.6837   5.7722   6.0199   6.8492

     occupation numbers 
     1.0000   1.0000   1.0000   1.0000   0.0000   0.0000   0.0000   0.0000

          k = 0.0938 0.5232 0.0000 (  6029 PWs)   bands (ev):

   -17.1613 -14.9591  -9.6481  -5.1049  -0.6254   5.8211   7.5073   8.4485

     occupation numbers 
     1.0000   1.0000   1.0000   1.0000   0.0000   0.0000   0.0000   0.0000

          k = 0.0938 0.5954 0.0000 (  6036 PWs)   bands (ev):

   -16.6367 -15.5484  -9.6950  -4.8180  -0.9776   5.8013   8.3967   9.3316

     occupation numbers 
     1.0000   1.0000   1.0000   1.0000   0.0000   0.0000   0.0000   0.0000

          k = 0.0938-0.4871 0.0000 (  6024 PWs)   bands (ev):

   -17.7366 -14.2555  -9.5548  -5.5651  -0.0365   5.8551   6.6697   7.6336

     occupation numbers 
     1.0000   1.0000   1.0000   1.0000   0.0000   0.0000   0.0000   0.0000

          k = 0.0938-0.4150 0.0000 (  6023 PWs)   bands (ev):

   -18.8149 -12.7407  -9.2320  -6.6439   1.4732   5.1047   6.0238   6.1123

     occupation numbers 
     1.0000   1.0000   1.0000   1.0000   0.0000   0.0000   0.0000   0.0000

          k = 0.0938-0.3428 0.0000 (  6005 PWs)   bands (ev):

   -19.7448 -11.1686  -8.7375  -7.6813   3.1251   3.8143   4.8080   5.1247

     occupation numbers 
     1.0000   1.0000   1.0000   1.0000   0.0000   0.0000   0.0000   0.0000

          k = 0.0938-0.2706 0.0000 (  5999 PWs)   bands (ev):

   -20.5084  -9.6291  -8.5693  -8.0909   2.7580   3.7192   4.0285   4.7472

     occupation numbers 
     1.0000   1.0000   1.0000   1.0000   0.0000   0.0000   0.0000   0.0000

          k = 0.0938-0.1985 0.0000 (  5974 PWs)   bands (ev):

   -21.0978  -9.2684  -8.2514  -7.3305   1.9470   2.9044   3.1897   4.1343

     occupation numbers 
     1.0000   1.0000   1.0000   1.0000   0.0000   0.0000   0.0000   0.0000

          k = 0.0938-0.1263 0.0000 (  5949 PWs)   bands (ev):

   -21.5084  -9.7604  -7.1759  -6.5757   1.3845   2.3345   2.6090   3.5625

     occupation numbers 
     1.0000   1.0000   1.0000   1.0000   0.0000   0.0000   0.0000   0.0000

          k = 0.0938-0.0541 0.0000 (  5975 PWs)   bands (ev):

   -21.7374 -10.0362  -6.4639  -6.1025   1.0720   2.0170   2.2864   3.2442

     occupation numbers 
     1.0000   1.0000   1.0000   1.0000   0.0000   0.0000   0.0000   0.0000

          k = 0.1562 0.2706 0.0000 (  6014 PWs)   bands (ev):

   -20.2380  -9.9167  -8.7276  -8.2508   3.1327   4.0997   4.2227   4.4158

     occupation numbers 
     1.0000   1.0000   1.0000   1.0000   0.0000   0.0000   0.0000   0.0000

          k = 0.1562 0.3428 0.0000 (  6042 PWs)   bands (ev):

   -19.4781 -11.1776  -9.5732  -7.3697   2.7677   4.1886   5.1581   5.5124

     occupation numbers 
     1.0000   1.0000   1.0000   1.0000   0.0000   0.0000   0.0000   0.0000

          k = 0.1562 0.4150 0.0000 (  6043 PWs)   bands (ev):

   -18.5542 -12.6139 -10.1530  -6.3380   1.2500   5.4822   6.4373   6.8652

     occupation numbers 
     1.0000   1.0000   1.0000   1.0000   0.0000   0.0000   0.0000   0.0000

          k = 0.1562 0.4871 0.0000 (  6051 PWs)   bands (ev):

   -17.4854 -14.0631 -10.5074  -5.2549  -0.1758   6.9705   7.2573   7.8589

     occupation numbers 
     1.0000   1.0000   1.0000   1.0000   0.0000   0.0000   0.0000   0.0000

          k = 0.1562 0.5593 0.0000 (  6052 PWs)   bands (ev):

   -16.4017 -15.3204 -10.6573  -4.4840  -1.1024   7.1463   8.7239   8.9606

     occupation numbers 
     1.0000   1.0000   1.0000   1.0000   0.0000   0.0000   0.0000   0.0000

          k = 0.1562 0.6315 0.0000 (  6037 PWs)   bands (ev):

   -16.9170 -14.7466 -10.6074  -4.7839  -0.7500   7.1615   7.8596   8.5214

     occupation numbers 
     1.0000   1.0000   1.0000   1.0000   0.0000   0.0000   0.0000   0.0000

          k = 0.1562-0.4511 0.0000 (  6041 PWs)   bands (ev):

   -18.0357 -13.3453 -10.3565  -5.7910   0.5107   6.2125   7.1414   7.2838

     occupation numbers 
     1.0000   1.0000   1.0000   1.0000   0.0000   0.0000   0.0000   0.0000

          k = 0.1562-0.3789 0.0000 (  6026 PWs)   bands (ev):

   -19.0359 -11.8850  -9.8938  -6.8689   2.0093   4.8064   5.7725   6.1571

     occupation numbers 
     1.0000   1.0000   1.0000   1.0000   0.0000   0.0000   0.0000   0.0000

          k = 0.1562-0.3067 0.0000 (  6030 PWs)   bands (ev):

   -19.8792 -10.5148  -9.1844  -7.8321   3.5097   3.6303   4.5996   4.9319

     occupation numbers 
     1.0000   1.0000   1.0000   1.0000   0.0000   0.0000   0.0000   0.0000

          k = 0.1562-0.2345 0.0000 (  5999 PWs)   bands (ev):

   -20.5536  -9.3859  -8.6222  -8.2256   2.6962   3.6605   3.9641   4.8713

     occupation numbers 
     1.0000   1.0000   1.0000   1.0000   0.0000   0.0000   0.0000   0.0000

          k = 0.1562-0.1624 0.0000 (  5985 PWs)   bands (ev):

   -21.0522  -9.2144  -8.4614  -7.2796   2.0091   2.9672   3.2542   4.1970

     occupation numbers 
     1.0000   1.0000   1.0000   1.0000   0.0000   0.0000   0.0000   0.0000

          k = 0.1562-0.0902 0.0000 (  5960 PWs)   bands (ev):

   -21.3713  -9.5959  -7.6729  -6.7028   1.5717   2.5245   2.8025   3.7530

     occupation numbers 
     1.0000   1.0000   1.0000   1.0000   0.0000   0.0000   0.0000   0.0000

          k = 0.2188 0.3789 0.0000 (  6034 PWs)   bands (ev):

   -18.6420 -12.0476 -10.6842  -6.4212   1.4815   5.3611   6.2916   6.7378

     occupation numbers 
     1.0000   1.0000   1.0000   1.0000   0.0000   0.0000   0.0000   0.0000

          k = 0.2188 0.4511 0.0000 (  6026 PWs)   bands (ev):

   -17.6538 -13.1892 -11.4020  -5.3511   0.1579   6.7598   7.5150   8.2191

     occupation numbers 
     1.0000   1.0000   1.0000   1.0000   0.0000   0.0000   0.0000   0.0000

          k = 0.2188 0.5232 0.0000 (  6048 PWs)   bands (ev):

   -16.5547 -14.4637 -11.7351  -4.3172  -1.0270   8.2946   8.3386   8.8234

     occupation numbers 
     1.0000   1.0000   1.0000   1.0000   0.0000   0.0000   0.0000   0.0000

          k = 0.2188 0.5954 0.0000 (  6056 PWs)   bands (ev):

   -16.0514 -15.0088 -11.7969  -3.9881  -1.3875   8.3929   8.7623   9.2022

     occupation numbers 
     1.0000   1.0000   1.0000   1.0000   0.0000   0.0000   0.0000   0.0000

          k = 0.2188 0.6676 0.0000 (  6040 PWs)   bands (ev):

   -17.1121 -13.8289 -11.6071  -4.8087  -0.4740   7.5338   8.0118   8.8544

     occupation numbers 
     1.0000   1.0000   1.0000   1.0000   0.0000   0.0000   0.0000   0.0000

          k = 0.2188-0.4150 0.0000 (  6052 PWs)   bands (ev):

   -18.1656 -12.5841 -11.1009  -5.8960   0.8180   6.0336   6.9102   7.4467

     occupation numbers 
     1.0000   1.0000   1.0000   1.0000   0.0000   0.0000   0.0000   0.0000

          k = 0.2188-0.3428 0.0000 (  6038 PWs)   bands (ev):

   -19.0802 -11.5869 -10.1608  -6.9149   2.1348   4.7455   5.7016   6.0930

     occupation numbers 
     1.0000   1.0000   1.0000   1.0000   0.0000   0.0000   0.0000   0.0000

          k = 0.2188-0.2706 0.0000 (  6015 PWs)   bands (ev):

   -19.8343 -10.7792  -8.9870  -7.7821   3.3748   3.6917   4.6716   4.9962

     occupation numbers 
     1.0000   1.0000   1.0000   1.0000   0.0000   0.0000   0.0000   0.0000

          k = 0.2188-0.1985 0.0000 (  6006 PWs)   bands (ev):

   -20.4179  -9.9804  -8.4645  -7.9659   2.8816   3.8297   4.1573   4.5204

     occupation numbers 
     1.0000   1.0000   1.0000   1.0000   0.0000   0.0000   0.0000   0.0000

          k = 0.2188-0.1263 0.0000 (  5984 PWs)   bands (ev):

   -20.8250  -9.1709  -8.9450  -7.3714   2.3203   3.2800   3.5766   4.5077

     occupation numbers 
     1.0000   1.0000   1.0000   1.0000   0.0000   0.0000   0.0000   0.0000

          k = 0.2812 0.4871 0.0000 (  6042 PWs)   bands (ev):

   -16.6251 -13.8390 -12.4262  -4.2748  -0.9591   8.0156   8.2283   9.8246

     occupation numbers 
     1.0000   1.0000   1.0000   1.0000   0.0000   0.0000   0.0000   0.0000

          k = 0.2812 0.5593 0.0000 (  6073 PWs)   bands (ev):

   -15.5927 -14.7347 -12.8518  -3.3452  -1.9003   7.9349   9.7256  10.1639

     occupation numbers 
     1.0000   1.0000   1.0000   1.0000   0.0000   0.0000   0.0000   0.0000

          k = 0.2812 0.6315 0.0000 (  6068 PWs)   bands (ev):

   -16.0850 -14.2792 -12.7179  -3.7502  -1.4918   7.9822   8.9992  10.2488

     occupation numbers 
     1.0000   1.0000   1.0000   1.0000   0.0000   0.0000   0.0000   0.0000

          k = 0.2812 0.7036 0.0000 (  6038 PWs)   bands (ev):

   -17.1527 -13.4837 -11.9724  -4.8187  -0.3999   7.4746   7.8929   8.9912

     occupation numbers 
     1.0000   1.0000   1.0000   1.0000   0.0000   0.0000   0.0000   0.0000

          k = 0.2812-0.3789 0.0000 (  6036 PWs)   bands (ev):

   -18.1221 -12.9038 -10.7853  -5.8615   0.7116   6.0941   6.9894   7.5103

     occupation numbers 
     1.0000   1.0000   1.0000   1.0000   0.0000   0.0000   0.0000   0.0000

          k = 0.2812-0.3067 0.0000 (  6028 PWs)   bands (ev):

   -18.9472 -12.2942  -9.5561  -6.7793   1.7824   4.9276   5.9109   6.2837

     occupation numbers 
     1.0000   1.0000   1.0000   1.0000   0.0000   0.0000   0.0000   0.0000

          k = 0.2812-0.2345 0.0000 (  6017 PWs)   bands (ev):

   -19.6104 -11.5852  -8.5523  -7.5326   2.7985   3.9973   5.0050   5.3154

     occupation numbers 
     1.0000   1.0000   1.0000   1.0000   0.0000   0.0000   0.0000   0.0000

          k = 0.2812-0.1624 0.0000 (  6006 PWs)   bands (ev):

   -20.1024 -10.7906  -8.0989  -7.9941   3.3146   3.6978   4.3545   4.6077

     occupation numbers 
     1.0000   1.0000   1.0000   1.0000   0.0000   0.0000   0.0000   0.0000

          k = 0.3438 0.5954 0.0000 (  6058 PWs)   bands (ev):

   -15.2113 -14.8603 -13.1959  -2.8916  -2.3280   7.8193  10.1791  10.2888

     occupation numbers 
     1.0000   1.0000   1.0000   1.0000   0.0000   0.0000   0.0000   0.0000

          k = 0.3438 0.6676 0.0000 (  6057 PWs)   bands (ev):

   -16.0667 -14.6056 -12.3339  -3.8344  -1.4543   8.1264   9.0523   9.5934

     occupation numbers 
     1.0000   1.0000   1.0000   1.0000   0.0000   0.0000   0.0000   0.0000

          k = 0.3438 0.7397 0.0000 (  6046 PWs)   bands (ev):

   -17.0327 -14.2784 -11.1219  -4.7976  -0.5954   7.6398   8.0160   8.2299

     occupation numbers 
     1.0000   1.0000   1.0000   1.0000   0.0000   0.0000   0.0000   0.0000

          k = 0.3438-0.3428 0.0000 (  6031 PWs)   bands (ev):

   -17.9067 -13.8015  -9.9366  -5.6934   0.2567   6.3407   6.5816   7.3584

     occupation numbers 
     1.0000   1.0000   1.0000   1.0000   0.0000   0.0000   0.0000   0.0000

          k = 0.3438-0.2706 0.0000 (  6024 PWs)   bands (ev):

   -18.6390 -13.1759  -8.9944  -6.4698   1.1259   5.2904   5.5732   6.3739

     occupation numbers 
     1.0000   1.0000   1.0000   1.0000   0.0000   0.0000   0.0000   0.0000

          k = 0.3438-0.1985 0.0000 (  6026 PWs)   bands (ev):

   -19.2101 -12.4223  -8.5026  -7.0907   1.9983   4.5374   5.2093   5.5752

     occupation numbers 
     1.0000   1.0000   1.0000   1.0000   0.0000   0.0000   0.0000   0.0000

          k = 0.4062 0.7036 0.0000 (  6044 PWs)   bands (ev):

   -16.1346 -15.2805 -11.2301  -4.2173  -1.2605   7.9397   8.7154   9.3013

     occupation numbers 
     1.0000   1.0000   1.0000   1.0000   0.0000   0.0000   0.0000   0.0000

          k = 0.4062 0.7758 0.0000 (  6040 PWs)   bands (ev):

   -16.7766 -15.1772 -10.1278  -4.7929  -0.8782   6.4236   8.0961   8.8591

     occupation numbers 
     1.0000   1.0000   1.0000   1.0000   0.0000   0.0000   0.0000   0.0000

          k = 0.4062-0.3067 0.0000 (  6034 PWs)   bands (ev):

   -17.5277 -14.6764  -9.2678  -5.4247  -0.3162   5.3628   6.9685   7.9637

     occupation numbers 
     1.0000   1.0000   1.0000   1.0000   0.0000   0.0000   0.0000   0.0000

          k = 0.4062-0.2345 0.0000 (  6026 PWs)   bands (ev):

   -18.1614 -13.9917  -8.8582  -6.0059   0.3794   5.0079   6.0619   7.0682

     occupation numbers 
     1.0000   1.0000   1.0000   1.0000   0.0000   0.0000   0.0000   0.0000

          k = 0.4688 0.8119 0.0000 (  6046 PWs)   bands (ev):

   -16.5981 -15.7384  -9.3603  -4.8898  -0.9883   5.3229   8.7100   8.8112

     occupation numbers 
     1.0000   1.0000   1.0000   1.0000   0.0000   0.0000   0.0000   0.0000

          k = 0.4688-0.2706 0.0000 (  6030 PWs)   bands (ev):

   -17.0172 -15.4038  -9.0405  -5.1235  -0.7851   4.9327   7.7538   8.7701

     occupation numbers 
     1.0000   1.0000   1.0000   1.0000   0.0000   0.0000   0.0000   0.0000

          k = 0.0625-0.0000 0.0000 (  5971 PWs)   bands (ev):

   -21.8750 -10.2024  -5.9401  -5.8379   0.8846   1.8264   2.0929   3.0531

     occupation numbers 
     1.0000   1.0000   1.0000   1.0000   0.0000   0.0000   0.0000   0.0000

          k =-0.0937 0.0902 0.0000 (  5973 PWs)   bands (ev):

   -21.6457  -9.9256  -6.7711  -6.2859   1.1969   2.1441   2.4154   3.3716

     occupation numbers 
     1.0000   1.0000   1.0000   1.0000   0.0000   0.0000   0.0000   0.0000

          k = 0.1250 0.0361 0.0000 (  5973 PWs)   bands (ev):

   -21.6457  -9.9257  -6.7657  -6.2916   1.1969   2.1441   2.4154   3.3716

     occupation numbers 
     1.0000   1.0000   1.0000   1.0000   0.0000   0.0000   0.0000   0.0000

          k =-0.1562 0.1263 0.0000 (  5959 PWs)   bands (ev):

   -21.2344  -9.4320  -8.0473  -6.9301   1.7591   2.7143   2.9961   3.9435

     occupation numbers 
     1.0000   1.0000   1.0000   1.0000   0.0000   0.0000   0.0000   0.0000

          k = 0.1875 0.0722 0.0000 (  5959 PWs)   bands (ev):

   -21.2344  -9.4321  -8.0451  -6.9326   1.7591   2.7143   2.9961   3.9434

     occupation numbers 
     1.0000   1.0000   1.0000   1.0000   0.0000   0.0000   0.0000   0.0000

          k =-0.2188 0.1624 0.0000 (  5992 PWs)   bands (ev):

   -20.6437  -9.5735  -8.7307  -7.6037   2.5697   3.5282   3.8346   4.7338

     occupation numbers 
     1.0000   1.0000   1.0000   1.0000   0.0000   0.0000   0.0000   0.0000

          k = 0.2500 0.1083 0.0000 (  5992 PWs)   bands (ev):

   -20.6437  -9.5725  -8.7308  -7.6048   2.5696   3.5282   3.8346   4.7340

     occupation numbers 
     1.0000   1.0000   1.0000   1.0000   0.0000   0.0000   0.0000   0.0000

          k =-0.2812 0.1985 0.0000 (  6016 PWs)   bands (ev):

   -19.8782 -11.1958  -8.2069  -7.8402   3.2724   3.6247   4.6415   4.9293

     occupation numbers 
     1.0000   1.0000   1.0000   1.0000   0.0000   0.0000   0.0000   0.0000

          k = 0.3125 0.1443 0.0000 (  6016 PWs)   bands (ev):

   -19.8782 -11.1954  -8.2074  -7.8403   3.2732   3.6246   4.6414   4.9292

     occupation numbers 
     1.0000   1.0000   1.0000   1.0000   0.0000   0.0000   0.0000   0.0000

          k =-0.3438 0.2345 0.0000 (  6018 PWs)   bands (ev):

   -18.9455 -12.8131  -8.6818  -6.8014   1.5647   4.8870   5.2886   5.9471

     occupation numbers 
     1.0000   1.0000   1.0000   1.0000   0.0000   0.0000   0.0000   0.0000

          k = 0.3750 0.1804 0.0000 (  6018 PWs)   bands (ev):

   -18.9454 -12.8129  -8.6820  -6.8016   1.5653   4.8867   5.2882   5.9471

     occupation numbers 
     1.0000   1.0000   1.0000   1.0000   0.0000   0.0000   0.0000   0.0000

          k =-0.4062 0.2706 0.0000 (  6026 PWs)   bands (ev):

   -17.8627 -14.3532  -8.9963  -5.7266   0.0190   5.0859   6.4853   7.4949

     occupation numbers 
     1.0000   1.0000   1.0000   1.0000   0.0000   0.0000   0.0000   0.0000

          k = 0.4375 0.2165 0.0000 (  6026 PWs)   bands (ev):

   -17.8627 -14.3532  -8.9964  -5.7268   0.0194   5.0855   6.4854   7.4947

     occupation numbers 
     1.0000   1.0000   1.0000   1.0000   0.0000   0.0000   0.0000   0.0000

          k =-0.4687 0.3067 0.0000 (  6032 PWs)   bands (ev):

   -16.7567 -15.6600  -9.1337  -4.9918  -0.9268   5.0271   8.2302   9.1790

     occupation numbers 
     1.0000   1.0000   1.0000   1.0000   0.0000   0.0000   0.0000   0.0000

          k = 0.5000 0.2526 0.0000 (  6032 PWs)   bands (ev):

   -16.7567 -15.6600  -9.1337  -4.9919  -0.9267   5.0271   8.2302   9.1790

     occupation numbers 
     1.0000   1.0000   1.0000   1.0000   0.0000   0.0000   0.0000   0.0000

          k = 0.4688-0.2345 0.0000 (  6026 PWs)   bands (ev):

   -17.2844 -15.0651  -9.0878  -5.2725  -0.5751   5.0473   7.3319   8.3446

     occupation numbers 
     1.0000   1.0000   1.0000   1.0000   0.0000   0.0000   0.0000   0.0000

          k =-0.4375-0.2887 0.0000 (  6026 PWs)   bands (ev):

   -17.2844 -15.0651  -9.0877  -5.2723  -0.5754   5.0475   7.3318   8.3447

     occupation numbers 
     1.0000   1.0000   1.0000   1.0000   0.0000   0.0000   0.0000   0.0000

          k = 0.4062-0.1985 0.0000 (  6014 PWs)   bands (ev):

   -18.4208 -13.5971  -8.8605  -6.2555   0.7538   5.1285   5.7077   6.6931

     occupation numbers 
     1.0000   1.0000   1.0000   1.0000   0.0000   0.0000   0.0000   0.0000

          k =-0.3750-0.2526 0.0000 (  6014 PWs)   bands (ev):

   -18.4208 -13.5972  -8.8604  -6.2553   0.7533   5.1292   5.7075   6.6933

     occupation numbers 
     1.0000   1.0000   1.0000   1.0000   0.0000   0.0000   0.0000   0.0000

          k = 0.3437-0.1624 0.0000 (  6028 PWs)   bands (ev):

   -19.4320 -12.0097  -8.4632  -7.3352   2.4155   4.2392   5.2607   5.3412

     occupation numbers 
     1.0000   1.0000   1.0000   1.0000   0.0000   0.0000   0.0000   0.0000

          k =-0.3125-0.2165 0.0000 (  6028 PWs)   bands (ev):

   -19.4321 -12.0099  -8.4628  -7.3351   2.4148   4.2393   5.2608   5.3422

     occupation numbers 
     1.0000   1.0000   1.0000   1.0000   0.0000   0.0000   0.0000   0.0000

          k = 0.2812-0.1263 0.0000 (  6019 PWs)   bands (ev):

   -20.2824 -10.3793  -8.3074  -7.9193   3.0670   3.9319   4.2729   4.3504

     occupation numbers 
     1.0000   1.0000   1.0000   1.0000   0.0000   0.0000   0.0000   0.0000

          k =-0.2500-0.1804 0.0000 (  6019 PWs)   bands (ev):

   -20.2825 -10.3800  -8.3073  -7.9185   3.0671   3.9316   4.2724   4.3504

     occupation numbers 
     1.0000   1.0000   1.0000   1.0000   0.0000   0.0000   0.0000   0.0000

          k = 0.2188-0.0902 0.0000 (  5980 PWs)   bands (ev):

   -20.9612  -9.1066  -8.7888  -7.2723   2.1335   3.0925   3.3832   4.3222

     occupation numbers 
     1.0000   1.0000   1.0000   1.0000   0.0000   0.0000   0.0000   0.0000

          k =-0.1875-0.1443 0.0000 (  5980 PWs)   bands (ev):

   -20.9612  -9.1064  -8.7903  -7.2707   2.1335   3.0926   3.3832   4.3221

     occupation numbers 
     1.0000   1.0000   1.0000   1.0000   0.0000   0.0000   0.0000   0.0000

          k = 0.1562-0.0541 0.0000 (  5962 PWs)   bands (ev):

   -21.4627  -9.7056  -7.3624  -6.5996   1.4468   2.3978   2.6735   3.6260

     occupation numbers 
     1.0000   1.0000   1.0000   1.0000   0.0000   0.0000   0.0000   0.0000

          k =-0.1250-0.1083 0.0000 (  5962 PWs)   bands (ev):

   -21.4627  -9.7055  -7.3659  -6.5959   1.4468   2.3978   2.6735   3.6261

     occupation numbers 
     1.0000   1.0000   1.0000   1.0000   0.0000   0.0000   0.0000   0.0000

          k = 0.0937-0.0180 0.0000 (  5958 PWs)   bands (ev):

   -21.7832 -10.0915  -6.2824  -6.0300   1.0095   1.9535   2.2219   3.1805

     occupation numbers 
     1.0000   1.0000   1.0000   1.0000   0.0000   0.0000   0.0000   0.0000

          k =-0.0625-0.0722 0.0000 (  5958 PWs)   bands (ev):

   -21.7833 -10.0915  -6.2909  -6.0212   1.0095   1.9535   2.2219   3.1805

     occupation numbers 
     1.0000   1.0000   1.0000   1.0000   0.0000   0.0000   0.0000   0.0000

          k = 0.0000-0.0361 0.0000 (  5949 PWs)   bands (ev):

   -21.9210 -10.2579  -5.7787  -5.7192   0.8221   1.7628   2.0284   2.9893

     occupation numbers 
     1.0000   1.0000   1.0000   1.0000   0.0000   0.0000   0.0000   0.0000

          k = 0.1875-0.0000 0.0000 (  5962 PWs)   bands (ev):

   -21.3256  -9.5412  -7.6596  -6.9493   1.6345   2.5880   2.8671   3.8169

     occupation numbers 
     1.0000   1.0000   1.0000   1.0000   0.0000   0.0000   0.0000   0.0000

          k =-0.1562 0.1985 0.0000 (  5982 PWs)   bands (ev):

   -20.8252  -8.9440  -8.9062  -7.7255   2.3216   3.2827   3.5769   4.5135

     occupation numbers 
     1.0000   1.0000   1.0000   1.0000   0.0000   0.0000   0.0000   0.0000

          k = 0.2500 0.0361 0.0000 (  5982 PWs)   bands (ev):

   -20.8251  -8.9444  -8.9004  -7.7319   2.3215   3.2827   3.5769   4.5135

     occupation numbers 
     1.0000   1.0000   1.0000   1.0000   0.0000   0.0000   0.0000   0.0000

          k =-0.2188 0.2345 0.0000 (  6013 PWs)   bands (ev):

   -20.1478 -10.3830  -8.4374  -8.1477   3.2558   3.9180   4.2735   4.5445

     occupation numbers 
     1.0000   1.0000   1.0000   1.0000   0.0000   0.0000   0.0000   0.0000

          k = 0.3125 0.0722 0.0000 (  6013 PWs)   bands (ev):

   -20.1477 -10.3804  -8.4403  -8.1481   3.2558   3.9203   4.2735   4.5445

     occupation numbers 
     1.0000   1.0000   1.0000   1.0000   0.0000   0.0000   0.0000   0.0000

          k =-0.2812 0.2706 0.0000 (  6028 PWs)   bands (ev):

   -19.2997 -11.9524  -9.0111  -7.1782   2.2989   4.4320   5.4304   5.7672

     occupation numbers 
     1.0000   1.0000   1.0000   1.0000   0.0000   0.0000   0.0000   0.0000

          k = 0.3750 0.1083 0.0000 (  6028 PWs)   bands (ev):

   -19.2996 -11.9513  -9.0125  -7.1788   2.3010   4.4319   5.4302   5.7671

     occupation numbers 
     1.0000   1.0000   1.0000   1.0000   0.0000   0.0000   0.0000   0.0000

          k =-0.3437 0.3067 0.0000 (  6026 PWs)   bands (ev):

   -18.2921 -13.5063  -9.4214  -6.0991   0.6889   5.7717   6.0178   6.8494

     occupation numbers 
     1.0000   1.0000   1.0000   1.0000   0.0000   0.0000   0.0000   0.0000

          k = 0.4375 0.1443 0.0000 (  6026 PWs)   bands (ev):

   -18.2919 -13.5060  -9.4220  -6.0998   0.6905   5.7701   6.0179   6.8491

     occupation numbers 
     1.0000   1.0000   1.0000   1.0000   0.0000   0.0000   0.0000   0.0000

          k =-0.4062 0.3428 0.0000 (  6029 PWs)   bands (ev):

   -17.1618 -14.9547  -9.6537  -5.1095  -0.6175   5.8186   7.5074   8.4485

     occupation numbers 
     1.0000   1.0000   1.0000   1.0000   0.0000   0.0000   0.0000   0.0000

          k = 0.5000 0.1804 0.0000 (  6029 PWs)   bands (ev):

   -17.1616 -14.9547  -9.6539  -5.1100  -0.6165   5.8179   7.5076   8.4480

     occupation numbers 
     1.0000   1.0000   1.0000   1.0000   0.0000   0.0000   0.0000   0.0000

          k =-0.4687 0.3789 0.0000 (  6036 PWs)   bands (ev):

   -16.6389 -15.5422  -9.7006  -4.8241  -0.9678   5.7984   8.3970   9.3315

     occupation numbers 
     1.0000   1.0000   1.0000   1.0000   0.0000   0.0000   0.0000   0.0000

          k = 0.5625 0.2165 0.0000 (  6036 PWs)   bands (ev):

   -16.6390 -15.5422  -9.7006  -4.8239  -0.9682   5.7987   8.3967   9.3323

     occupation numbers 
     1.0000   1.0000   1.0000   1.0000   0.0000   0.0000   0.0000   0.0000

          k = 0.4687-0.1624 0.0000 (  6024 PWs)   bands (ev):

   -17.7365 -14.2513  -9.5608  -5.5689  -0.0288   5.8515   6.6699   7.6333

     occupation numbers 
     1.0000   1.0000   1.0000   1.0000   0.0000   0.0000   0.0000   0.0000

          k =-0.3750-0.3248 0.0000 (  6024 PWs)   bands (ev):

   -17.7366 -14.2515  -9.5604  -5.5683  -0.0301   5.8528   6.6696   7.6337

     occupation numbers 
     1.0000   1.0000   1.0000   1.0000   0.0000   0.0000   0.0000   0.0000

          k = 0.4062-0.1263 0.0000 (  6023 PWs)   bands (ev):

   -18.8146 -12.7359  -9.2387  -6.6460   1.4793   5.1045   6.0192   6.1122

     occupation numbers 
     1.0000   1.0000   1.0000   1.0000   0.0000   0.0000   0.0000   0.0000

          k =-0.3125-0.2887 0.0000 (  6023 PWs)   bands (ev):

   -18.8147 -12.7366  -9.2378  -6.6454   1.4774   5.1048   6.0211   6.1124

     occupation numbers 
     1.0000   1.0000   1.0000   1.0000   0.0000   0.0000   0.0000   0.0000

          k = 0.3438-0.0902 0.0000 (  6005 PWs)   bands (ev):

   -19.7444 -11.1623  -8.7454  -7.6825   3.1298   3.8142   4.8081   5.1246

     occupation numbers 
     1.0000   1.0000   1.0000   1.0000   0.0000   0.0000   0.0000   0.0000

          k =-0.2500-0.2526 0.0000 (  6005 PWs)   bands (ev):

   -19.7446 -11.1639  -8.7434  -7.6820   3.1276   3.8143   4.8082   5.1246

     occupation numbers 
     1.0000   1.0000   1.0000   1.0000   0.0000   0.0000   0.0000   0.0000

          k = 0.2812-0.0541 0.0000 (  5999 PWs)   bands (ev):

   -20.5082  -9.6205  -8.5700  -8.1008   2.7580   3.7190   4.0285   4.7505

     occupation numbers 
     1.0000   1.0000   1.0000   1.0000   0.0000   0.0000   0.0000   0.0000

          k =-0.1875-0.2165 0.0000 (  5999 PWs)   bands (ev):

   -20.5083  -9.6244  -8.5696  -8.0964   2.7580   3.7190   4.0285   4.7482

     occupation numbers 
     1.0000   1.0000   1.0000   1.0000   0.0000   0.0000   0.0000   0.0000

          k = 0.2188-0.0180 0.0000 (  5974 PWs)   bands (ev):

   -21.0977  -9.2687  -8.2406  -7.3423   1.9469   2.9044   3.1897   4.1343

     occupation numbers 
     1.0000   1.0000   1.0000   1.0000   0.0000   0.0000   0.0000   0.0000

          k =-0.1250-0.1804 0.0000 (  5974 PWs)   bands (ev):

   -21.0978  -9.2684  -8.2488  -7.3334   1.9470   2.9044   3.1897   4.1343

     occupation numbers 
     1.0000   1.0000   1.0000   1.0000   0.0000   0.0000   0.0000   0.0000

          k = 0.1562 0.0180 0.0000 (  5949 PWs)   bands (ev):

   -21.5084  -9.7605  -7.1671  -6.5851   1.3844   2.3344   2.6090   3.5625

     occupation numbers 
     1.0000   1.0000   1.0000   1.0000   0.0000   0.0000   0.0000   0.0000

          k =-0.0625-0.1443 0.0000 (  5949 PWs)   bands (ev):

   -21.5084  -9.7603  -7.1794  -6.5720   1.3845   2.3345   2.6090   3.5625

     occupation numbers 
     1.0000   1.0000   1.0000   1.0000   0.0000   0.0000   0.0000   0.0000

          k = 0.0000-0.1083 0.0000 (  5975 PWs)   bands (ev):

   -21.7374 -10.0361  -6.4751  -6.0908   1.0720   2.0171   2.2864   3.2442

     occupation numbers 
     1.0000   1.0000   1.0000   1.0000   0.0000   0.0000   0.0000   0.0000

          k = 0.3125 0.0000 0.0000 (  6014 PWs)   bands (ev):

   -20.2378  -9.9083  -8.7369  -8.2515   3.1326   4.0996   4.2265   4.4158

     occupation numbers 
     1.0000   1.0000   1.0000   1.0000   0.0000   0.0000   0.0000   0.0000

          k =-0.2188 0.3067 0.0000 (  6042 PWs)   bands (ev):

   -19.4780 -11.1745  -9.5768  -7.3701   2.7689   4.1886   5.1582   5.5124

     occupation numbers 
     1.0000   1.0000   1.0000   1.0000   0.0000   0.0000   0.0000   0.0000

          k = 0.3750 0.0361 0.0000 (  6042 PWs)   bands (ev):

   -19.4778 -11.1700  -9.5820  -7.3710   2.7726   4.1885   5.1579   5.5124

     occupation numbers 
     1.0000   1.0000   1.0000   1.0000   0.0000   0.0000   0.0000   0.0000

          k =-0.2812 0.3428 0.0000 (  6043 PWs)   bands (ev):

   -18.5540 -12.6102 -10.1576  -6.3391   1.2528   5.4823   6.4373   6.8652

     occupation numbers 
     1.0000   1.0000   1.0000   1.0000   0.0000   0.0000   0.0000   0.0000

          k = 0.4375 0.0722 0.0000 (  6043 PWs)   bands (ev):

   -18.5538 -12.6084 -10.1600  -6.3402   1.2560   5.4822   6.4369   6.8651

     occupation numbers 
     1.0000   1.0000   1.0000   1.0000   0.0000   0.0000   0.0000   0.0000

          k =-0.3437 0.3789 0.0000 (  6051 PWs)   bands (ev):

   -17.4855 -14.0592 -10.5123  -5.2576  -0.1706   6.9709   7.2542   7.8588

     occupation numbers 
     1.0000   1.0000   1.0000   1.0000   0.0000   0.0000   0.0000   0.0000

          k = 0.5000 0.1083 0.0000 (  6051 PWs)   bands (ev):

   -17.4853 -14.0586 -10.5132  -5.2588  -0.1682   6.9693   7.2542   7.8579

     occupation numbers 
     1.0000   1.0000   1.0000   1.0000   0.0000   0.0000   0.0000   0.0000

          k =-0.4062 0.4150 0.0000 (  6052 PWs)   bands (ev):

   -16.4042 -15.3141 -10.6624  -4.4897  -1.0936   7.1434   8.7237   8.9590

     occupation numbers 
     1.0000   1.0000   1.0000   1.0000   0.0000   0.0000   0.0000   0.0000

          k = 0.5625 0.1443 0.0000 (  6052 PWs)   bands (ev):

   -16.4041 -15.3140 -10.6625  -4.4901  -1.0929   7.1430   8.7242   8.9583

     occupation numbers 
     1.0000   1.0000   1.0000   1.0000   0.0000   0.0000   0.0000   0.0000

          k =-0.4688 0.4511 0.0000 (  6037 PWs)   bands (ev):

   -16.9175 -14.7419 -10.6129  -4.7890  -0.7413   7.1576   7.8601   8.5197

     occupation numbers 
     1.0000   1.0000   1.0000   1.0000   0.0000   0.0000   0.0000   0.0000

          k = 0.6250 0.1804 0.0000 (  6037 PWs)   bands (ev):

   -16.9176 -14.7421 -10.6124  -4.7881  -0.7430   7.1591   7.8593   8.5209

     occupation numbers 
     1.0000   1.0000   1.0000   1.0000   0.0000   0.0000   0.0000   0.0000

          k = 0.4687-0.0902 0.0000 (  6041 PWs)   bands (ev):

   -18.0353 -13.3404 -10.3628  -5.7940   0.5174   6.2123   7.1408   7.2786

     occupation numbers 
     1.0000   1.0000   1.0000   1.0000   0.0000   0.0000   0.0000   0.0000

          k =-0.3125-0.3608 0.0000 (  6041 PWs)   bands (ev):

   -18.0356 -13.3415 -10.3613  -5.7928   0.5145   6.2126   7.1414   7.2813

     occupation numbers 
     1.0000   1.0000   1.0000   1.0000   0.0000   0.0000   0.0000   0.0000

          k = 0.4062-0.0541 0.0000 (  6026 PWs)   bands (ev):

   -19.0355 -11.8785  -9.9016  -6.8706   2.0148   4.8064   5.7722   6.1571

     occupation numbers 
     1.0000   1.0000   1.0000   1.0000   0.0000   0.0000   0.0000   0.0000

          k =-0.2500-0.3248 0.0000 (  6026 PWs)   bands (ev):

   -19.0358 -11.8814  -9.8981  -6.8696   2.0113   4.8065   5.7726   6.1572

     occupation numbers 
     1.0000   1.0000   1.0000   1.0000   0.0000   0.0000   0.0000   0.0000

          k = 0.3438-0.0180 0.0000 (  6030 PWs)   bands (ev):

   -19.8790 -10.5063  -9.1939  -7.8330   3.5140   3.6303   4.5994   4.9319

     occupation numbers 
     1.0000   1.0000   1.0000   1.0000   0.0000   0.0000   0.0000   0.0000

          k =-0.1875-0.2887 0.0000 (  6030 PWs)   bands (ev):

   -19.8792 -10.5129  -9.1866  -7.8322   3.5102   3.6303   4.5996   4.9319

     occupation numbers 
     1.0000   1.0000   1.0000   1.0000   0.0000   0.0000   0.0000   0.0000

          k = 0.2812 0.0180 0.0000 (  5999 PWs)   bands (ev):

   -20.5534  -9.3784  -8.6227  -8.2337   2.6962   3.6604   3.9641   4.8764

     occupation numbers 
     1.0000   1.0000   1.0000   1.0000   0.0000   0.0000   0.0000   0.0000

          k =-0.1250-0.2526 0.0000 (  5999 PWs)   bands (ev):

   -20.5536  -9.3880  -8.6222  -8.2231   2.6962   3.6605   3.9641   4.8893

     occupation numbers 
     1.0000   1.0000   1.0000   1.0000   0.0000   0.0000   0.0000   0.0000

          k = 0.2188 0.0541 0.0000 (  5985 PWs)   bands (ev):

   -21.0522  -9.2146  -8.4573  -7.2841   2.0091   2.9671   3.2542   4.1970

     occupation numbers 
     1.0000   1.0000   1.0000   1.0000   0.0000   0.0000   0.0000   0.0000

          k =-0.0625-0.2165 0.0000 (  5985 PWs)   bands (ev):

   -21.0523  -9.2142  -8.4673  -7.2730   2.0091   2.9672   3.2542   4.1971

     occupation numbers 
     1.0000   1.0000   1.0000   1.0000   0.0000   0.0000   0.0000   0.0000

          k = 0.0000-0.1804 0.0000 (  5960 PWs)   bands (ev):

   -21.3713  -9.5957  -7.6820  -6.6927   1.5717   2.5245   2.8025   3.7532

     occupation numbers 
     1.0000   1.0000   1.0000   1.0000   0.0000   0.0000   0.0000   0.0000

          k = 0.4375 0.0000 0.0000 (  6034 PWs)   bands (ev):

   -18.6417 -12.0410 -10.6918  -6.4228   1.4864   5.3610   6.2911   6.7378

     occupation numbers 
     1.0000   1.0000   1.0000   1.0000   0.0000   0.0000   0.0000   0.0000

          k =-0.2812 0.4150 0.0000 (  6026 PWs)   bands (ev):

   -17.6538 -13.1864 -11.4052  -5.3520   0.1598   6.7599   7.5149   8.2191

     occupation numbers 
     1.0000   1.0000   1.0000   1.0000   0.0000   0.0000   0.0000   0.0000

          k = 0.5000 0.0361 0.0000 (  6026 PWs)   bands (ev):

   -17.6535 -13.1832 -11.4090  -5.3540   0.1640   6.7598   7.5135   8.2191

     occupation numbers 
     1.0000   1.0000   1.0000   1.0000   0.0000   0.0000   0.0000   0.0000

          k =-0.3438 0.4511 0.0000 (  6048 PWs)   bands (ev):

   -16.5553 -14.4594 -11.7394  -4.3205  -1.0218   8.2934   8.3393   8.8199

     occupation numbers 
     1.0000   1.0000   1.0000   1.0000   0.0000   0.0000   0.0000   0.0000

          k = 0.5625 0.0722 0.0000 (  6048 PWs)   bands (ev):

   -16.5553 -14.4583 -11.7406  -4.3222  -1.0190   8.2917   8.3382   8.8201

     occupation numbers 
     1.0000   1.0000   1.0000   1.0000   0.0000   0.0000   0.0000   0.0000

          k =-0.4062 0.4871 0.0000 (  6056 PWs)   bands (ev):

   -16.0541 -15.0019 -11.8019  -3.9942  -1.3787   8.3902   8.7589   9.2027

     occupation numbers 
     1.0000   1.0000   1.0000   1.0000   0.0000   0.0000   0.0000   0.0000

          k = 0.6250 0.1083 0.0000 (  6056 PWs)   bands (ev):

   -16.0540 -15.0023 -11.8015  -3.9934  -1.3798   8.3908   8.7604   9.2006

     occupation numbers 
     1.0000   1.0000   1.0000   1.0000   0.0000   0.0000   0.0000   0.0000

          k =-0.4688 0.5232 0.0000 (  6040 PWs)   bands (ev):

   -17.1121 -13.8235 -11.6133  -4.8125  -0.4671   7.5338   8.0095   8.8488

     occupation numbers 
     1.0000   1.0000   1.0000   1.0000   0.0000   0.0000   0.0000   0.0000

          k = 0.6875 0.1443 0.0000 (  6040 PWs)   bands (ev):

   -17.1123 -13.8254 -11.6109  -4.8105  -0.4708   7.5340   8.0114   8.8520

     occupation numbers 
     1.0000   1.0000   1.0000   1.0000   0.0000   0.0000   0.0000   0.0000

          k = 0.4687-0.0180 0.0000 (  6052 PWs)   bands (ev):

   -18.1652 -12.5775 -11.1085  -5.8982   0.8234   6.0336   6.9093   7.4467

     occupation numbers 
     1.0000   1.0000   1.0000   1.0000   0.0000   0.0000   0.0000   0.0000

          k =-0.2500-0.3969 0.0000 (  6052 PWs)   bands (ev):

   -18.1655 -12.5824 -11.1027  -5.8964   0.8188   6.0336   6.9102   7.4467

     occupation numbers 
     1.0000   1.0000   1.0000   1.0000   0.0000   0.0000   0.0000   0.0000

          k = 0.4062 0.0180 0.0000 (  6038 PWs)   bands (ev):

   -19.0799 -11.5811 -10.1674  -6.9161   2.1391   4.7454   5.7012   6.0930

     occupation numbers 
     1.0000   1.0000   1.0000   1.0000   0.0000   0.0000   0.0000   0.0000

          k =-0.1875-0.3608 0.0000 (  6038 PWs)   bands (ev):

   -19.0802 -11.5886 -10.1588  -6.9147   2.1342   4.7455   5.7016   6.0930

     occupation numbers 
     1.0000   1.0000   1.0000   1.0000   0.0000   0.0000   0.0000   0.0000

          k = 0.3438 0.0541 0.0000 (  6015 PWs)   bands (ev):

   -19.8341 -10.7757  -8.9910  -7.7828   3.3779   3.6917   4.6714   4.9962

     occupation numbers 
     1.0000   1.0000   1.0000   1.0000   0.0000   0.0000   0.0000   0.0000

          k =-0.1250-0.3248 0.0000 (  6015 PWs)   bands (ev):

   -19.8344 -10.7832  -8.9822  -7.7817   3.3733   3.6917   4.6713   4.9962

     occupation numbers 
     1.0000   1.0000   1.0000   1.0000   0.0000   0.0000   0.0000   0.0000

          k = 0.2812 0.0902 0.0000 (  6006 PWs)   bands (ev):

   -20.4178  -9.9786  -8.4647  -7.9679   2.8816   3.8298   4.1573   4.5218

     occupation numbers 
     1.0000   1.0000   1.0000   1.0000   0.0000   0.0000   0.0000   0.0000

          k =-0.0625-0.2887 0.0000 (  6006 PWs)   bands (ev):

   -20.4180  -9.9859  -8.4640  -7.9591   2.8816   3.8302   4.1573   4.5180

     occupation numbers 
     1.0000   1.0000   1.0000   1.0000   0.0000   0.0000   0.0000   0.0000

          k = 0.0000-0.2526 0.0000 (  5984 PWs)   bands (ev):

   -20.8251  -9.1781  -8.9446  -7.3628   2.3203   3.2802   3.5766   4.5077

     occupation numbers 
     1.0000   1.0000   1.0000   1.0000   0.0000   0.0000   0.0000   0.0000

          k = 0.5625 0.0000 0.0000 (  6042 PWs)   bands (ev):

   -16.6252 -13.8338 -12.4318  -4.2782  -0.9536   8.0131   8.2283   9.8244

     occupation numbers 
     1.0000   1.0000   1.0000   1.0000   0.0000   0.0000   0.0000   0.0000

          k =-0.3438 0.5232 0.0000 (  6073 PWs)   bands (ev):

   -15.5950 -14.7293 -12.8551  -3.3496  -1.8949   7.9338   9.7263  10.1609

     occupation numbers 
     1.0000   1.0000   1.0000   1.0000   0.0000   0.0000   0.0000   0.0000

          k = 0.6250 0.0361 0.0000 (  6073 PWs)   bands (ev):

   -15.5956 -14.7276 -12.8563  -3.3514  -1.8926   7.9332   9.7245  10.1676

     occupation numbers 
     1.0000   1.0000   1.0000   1.0000   0.0000   0.0000   0.0000   0.0000

          k =-0.4062 0.5593 0.0000 (  6068 PWs)   bands (ev):

   -16.0858 -14.2734 -12.7232  -3.7549  -1.4853   7.9799   8.9990  10.2497

     occupation numbers 
     1.0000   1.0000   1.0000   1.0000   0.0000   0.0000   0.0000   0.0000

          k = 0.6875 0.0722 0.0000 (  6068 PWs)   bands (ev):

   -16.0854 -14.2770 -12.7198  -3.7516  -1.4900   7.9817   8.9993  10.2465

     occupation numbers 
     1.0000   1.0000   1.0000   1.0000   0.0000   0.0000   0.0000   0.0000

          k =-0.4687 0.5954 0.0000 (  6038 PWs)   bands (ev):

   -17.1525 -13.4794 -11.9773  -4.8212  -0.3951   7.4745   7.8907   8.9910

     occupation numbers 
     1.0000   1.0000   1.0000   1.0000   0.0000   0.0000   0.0000   0.0000

          k = 0.7500 0.1083 0.0000 (  6038 PWs)   bands (ev):

   -17.1527 -13.4854 -11.9706  -4.8181  -0.4010   7.4745   7.8931   8.9911

     occupation numbers 
     1.0000   1.0000   1.0000   1.0000   0.0000   0.0000   0.0000   0.0000

          k = 0.4687 0.0541 0.0000 (  6036 PWs)   bands (ev):

   -18.1218 -12.9014 -10.7883  -5.8629   0.7153   6.0940   6.9886   7.5102

     occupation numbers 
     1.0000   1.0000   1.0000   1.0000   0.0000   0.0000   0.0000   0.0000

          k =-0.1875-0.4330 0.0000 (  6036 PWs)   bands (ev):

   -18.1222 -12.9072 -10.7813  -5.8604   0.7092   6.0940   6.9894   7.5103

     occupation numbers 
     1.0000   1.0000   1.0000   1.0000   0.0000   0.0000   0.0000   0.0000

          k = 0.4062 0.0902 0.0000 (  6028 PWs)   bands (ev):

   -18.9470 -12.2928  -9.5579  -6.7802   1.7851   4.9275   5.9106   6.2837

     occupation numbers 
     1.0000   1.0000   1.0000   1.0000   0.0000   0.0000   0.0000   0.0000

          k =-0.1250-0.3969 0.0000 (  6028 PWs)   bands (ev):

   -18.9473 -12.2983  -9.5508  -6.7783   1.7793   4.9275   5.9108   6.2839

     occupation numbers 
     1.0000   1.0000   1.0000   1.0000   0.0000   0.0000   0.0000   0.0000

          k = 0.3438 0.1263 0.0000 (  6017 PWs)   bands (ev):

   -19.6103 -11.5844  -8.5533  -7.5330   2.7999   3.9972   5.0049   5.3155

     occupation numbers 
     1.0000   1.0000   1.0000   1.0000   0.0000   0.0000   0.0000   0.0000

          k =-0.0625-0.3608 0.0000 (  6017 PWs)   bands (ev):

   -19.6106 -11.5899  -8.5459  -7.5316   2.7951   3.9973   5.0047   5.3152

     occupation numbers 
     1.0000   1.0000   1.0000   1.0000   0.0000   0.0000   0.0000   0.0000

          k = 0.0000-0.3248 0.0000 (  6006 PWs)   bands (ev):

   -20.1026 -10.7963  -8.0980  -7.9866   3.3147   3.6950   4.3535   4.6077

     occupation numbers 
     1.0000   1.0000   1.0000   1.0000   0.0000   0.0000   0.0000   0.0000

          k = 0.6875-0.0000 0.0000 (  6058 PWs)   bands (ev):

   -15.2070 -14.8665 -13.1939  -2.8857  -2.3344   7.8199  10.1829  10.2833

     occupation numbers 
     1.0000   1.0000   1.0000   1.0000   0.0000   0.0000   0.0000   0.0000

          k =-0.4062 0.6315 0.0000 (  6057 PWs)   bands (ev):

   -16.0668 -14.6042 -12.3353  -3.8364  -1.4516   8.1251   9.0511   9.5953

     occupation numbers 
     1.0000   1.0000   1.0000   1.0000   0.0000   0.0000   0.0000   0.0000

          k = 0.7500 0.0361 0.0000 (  6057 PWs)   bands (ev):

   -16.0654 -14.6104 -12.3300  -3.8307  -1.4595   8.1277   9.0515   9.5971

     occupation numbers 
     1.0000   1.0000   1.0000   1.0000   0.0000   0.0000   0.0000   0.0000

          k =-0.4688 0.6676 0.0000 (  6046 PWs)   bands (ev):

   -17.0325 -14.2776 -11.1230  -4.7991  -0.5927   7.6385   8.0158   8.2284

     occupation numbers 
     1.0000   1.0000   1.0000   1.0000   0.0000   0.0000   0.0000   0.0000

          k = 0.8125 0.0722 0.0000 (  6046 PWs)   bands (ev):

   -17.0324 -14.2824 -11.1174  -4.7946  -0.6006   7.6392   8.0193   8.2305

     occupation numbers 
     1.0000   1.0000   1.0000   1.0000   0.0000   0.0000   0.0000   0.0000

          k = 0.4687 0.1263 0.0000 (  6031 PWs)   bands (ev):

   -17.9065 -13.8010  -9.9374  -5.6943   0.2587   6.3388   6.5818   7.3578

     occupation numbers 
     1.0000   1.0000   1.0000   1.0000   0.0000   0.0000   0.0000   0.0000

          k =-0.1250-0.4691 0.0000 (  6031 PWs)   bands (ev):

   -17.9067 -13.8054  -9.9313  -5.6909   0.2515   6.3407   6.5842   7.3583

     occupation numbers 
     1.0000   1.0000   1.0000   1.0000   0.0000   0.0000   0.0000   0.0000

          k = 0.4062 0.1624 0.0000 (  6024 PWs)   bands (ev):

   -18.6389 -13.1756  -8.9949  -6.4702   1.1270   5.2894   5.5730   6.3738

     occupation numbers 
     1.0000   1.0000   1.0000   1.0000   0.0000   0.0000   0.0000   0.0000

          k =-0.0625-0.4330 0.0000 (  6024 PWs)   bands (ev):

   -18.6392 -13.1800  -8.9884  -6.4677   1.1208   5.2909   5.5753   6.3738

     occupation numbers 
     1.0000   1.0000   1.0000   1.0000   0.0000   0.0000   0.0000   0.0000

          k = 0.0000-0.3969 0.0000 (  6026 PWs)   bands (ev):

   -19.2104 -12.4269  -8.4958  -7.0890   1.9933   4.5376   5.2125   5.5750

     occupation numbers 
     1.0000   1.0000   1.0000   1.0000   0.0000   0.0000   0.0000   0.0000

          k = 0.8125-0.0000 0.0000 (  6044 PWs)   bands (ev):

   -16.1311 -15.2881 -11.2251  -4.2113  -1.2695   7.9428   8.7179   9.3024

     occupation numbers 
     1.0000   1.0000   1.0000   1.0000   0.0000   0.0000   0.0000   0.0000

          k =-0.4688 0.7397 0.0000 (  6040 PWs)   bands (ev):

   -16.7765 -15.1771 -10.1280  -4.7934  -0.8773   6.4230   8.0965   8.8582

     occupation numbers 
     1.0000   1.0000   1.0000   1.0000   0.0000   0.0000   0.0000   0.0000

          k = 0.8750 0.0361 0.0000 (  6040 PWs)   bands (ev):

   -16.7754 -15.1822 -10.1225  -4.7877  -0.8866   6.4263   8.0961   8.8595

     occupation numbers 
     1.0000   1.0000   1.0000   1.0000   0.0000   0.0000   0.0000   0.0000

          k = 0.4687 0.1985 0.0000 (  6034 PWs)   bands (ev):

   -17.5276 -14.6763  -9.2680  -5.4251  -0.3155   5.3622   6.9687   7.9634

     occupation numbers 
     1.0000   1.0000   1.0000   1.0000   0.0000   0.0000   0.0000   0.0000

          k =-0.0625-0.5052 0.0000 (  6034 PWs)   bands (ev):

   -17.5276 -14.6805  -9.2620  -5.4206  -0.3237   5.3652   6.9684   7.9636

     occupation numbers 
     1.0000   1.0000   1.0000   1.0000   0.0000   0.0000   0.0000   0.0000

          k = 0.0000-0.4691 0.0000 (  6026 PWs)   bands (ev):

   -18.1616 -13.9957  -8.8519  -6.0027   0.3726   5.0106   6.0618   7.0682

     occupation numbers 
     1.0000   1.0000   1.0000   1.0000   0.0000   0.0000   0.0000   0.0000

          k = 0.9375 0.0000 0.0000 (  6046 PWs)   bands (ev):

   -16.5949 -15.7455  -9.3545  -4.8836  -0.9981   5.3255   8.7106   8.8098

     occupation numbers 
     1.0000   1.0000   1.0000   1.0000   0.0000   0.0000   0.0000   0.0000

          k = 0.0000-0.5413 0.0000 (  6030 PWs)   bands (ev):

   -17.0162 -15.4088  -9.0344  -5.1180  -0.7944   4.9351   7.7536   8.7702

     occupation numbers 
     1.0000   1.0000   1.0000   1.0000   0.0000   0.0000   0.0000   0.0000

     the Fermi energy is    -2.6099 ev

!    total energy              =     -22.85409493 Ry
     Harris-Foulkes estimate   =     -22.85409493 Ry
     estimated scf accuracy    <          5.6E-13 Ry

     The total energy is the sum of the following terms:

     one-electron contribution =    -221.12434813 Ry
     hartree contribution      =     111.66468689 Ry
     xc contribution           =      -6.94780817 Ry
     ewald contribution        =      93.55337447 Ry
     smearing contrib. (-TS)   =       0.00000000 Ry

     convergence has been achieved in  13 iterations

     Forces acting on atoms (Ry/au):

     atom    1 type  1   force =     0.00000000   -0.00120001    0.00000000
     atom    2 type  1   force =     0.00000000    0.00120001    0.00000000
     The non-local contrib.  to forces
     atom    1 type  1   force =     0.00000000   -0.00138475    0.00000000
     atom    2 type  1   force =     0.00000000    0.00138520    0.00000000
     The ionic contribution  to forces
     atom    1 type  1   force =     0.00000000   -0.00406423    0.00000000
     atom    2 type  1   force =    -0.00000000    0.00406423    0.00000000
     The local contribution  to forces
     atom    1 type  1   force =     0.00000000    0.00424911    0.00000000
     atom    2 type  1   force =    -0.00000000   -0.00424918    0.00000000
     The core correction contribution to forces
     atom    1 type  1   force =     0.00000000    0.00000000    0.00000000
     atom    2 type  1   force =     0.00000000    0.00000000    0.00000000
     The Hubbard contrib.    to forces
     atom    1 type  1   force =     0.00000000    0.00000000    0.00000000
     atom    2 type  1   force =     0.00000000    0.00000000    0.00000000
     The SCF correction term to forces
     atom    1 type  1   force =    -0.00000000    0.00000006    0.00000000
     atom    2 type  1   force =     0.00000000   -0.00000003    0.00000000

     Total force =     0.001697     Total SCF correction =     0.000000


     entering subroutine stress ...

          total   stress  (Ry/bohr**3)                   (kbar)     P=  -12.12
  -0.00012409   0.00000000   0.00000000        -18.25      0.00      0.00
   0.00000000  -0.00012277  -0.00000000          0.00    -18.06     -0.00
   0.00000000  -0.00000000  -0.00000024          0.00     -0.00     -0.04

     kinetic stress (kbar)   1870.77      0.00      0.00
                                0.00   1870.11      0.00
                                0.00      0.00   2153.22

     local   stress (kbar) -49471.19      0.00     -0.00
                                0.00 -49475.13      0.00
                               -0.00      0.00  49112.31

     nonloc. stress (kbar)    657.42      0.00      0.00
                                0.00    657.69      0.00
                                0.00      0.00    577.41

     hartree stress (kbar)  23423.23     -0.00      0.00
                               -0.00  23423.77     -0.00
                                0.00     -0.00 -23250.69

     exc-cor stress (kbar)   -451.47      0.00      0.00
                                0.00   -451.47      0.00
                                0.00      0.00   -451.47

     corecor stress (kbar)      0.00      0.00      0.00
                                0.00      0.00      0.00
                                0.00      0.00      0.00

     ewald   stress (kbar)  23952.98      0.00      0.00
                                0.00  23956.98      0.00
                                0.00      0.00 -28140.82

     hubbard stress (kbar)      0.00      0.00      0.00
                                0.00      0.00      0.00
                                0.00      0.00      0.00

     london  stress (kbar)      0.00      0.00      0.00
                                0.00      0.00      0.00
                                0.00      0.00      0.00

     dft-nl  stress (kbar)      0.00      0.00      0.00
                                0.00      0.00      0.00
                                0.00      0.00      0.00



     Writing output data file Gr-hex.save
 
     init_run     :      7.91s CPU      7.96s WALL (       1 calls)
     electrons    :    334.04s CPU    334.70s WALL (       1 calls)
     forces       :      1.88s CPU      1.89s WALL (       1 calls)
     stress       :      4.48s CPU      4.50s WALL (       1 calls)

     Called by init_run:
     wfcinit      :      7.32s CPU      7.36s WALL (       1 calls)
     potinit      :      0.11s CPU      0.11s WALL (       1 calls)

     Called by electrons:
     c_bands      :    283.80s CPU    284.28s WALL (      13 calls)
     sum_band     :     48.06s CPU     48.17s WALL (      13 calls)
     v_of_rho     :      0.36s CPU      0.36s WALL (      14 calls)
     v_h          :      0.15s CPU      0.15s WALL (      14 calls)
     v_xc         :      0.21s CPU      0.22s WALL (      14 calls)
     newd         :      1.41s CPU      1.46s WALL (      14 calls)
     mix_rho      :      0.34s CPU      0.34s WALL (      13 calls)

     Called by c_bands:
     init_us_2    :      5.34s CPU      5.40s WALL (    5800 calls)
     cegterg      :    272.73s CPU    273.14s WALL (    2600 calls)

     Called by sum_band:
     sum_band:bec :      0.01s CPU      0.01s WALL (    2600 calls)
     addusdens    :      1.21s CPU      1.25s WALL (      13 calls)

     Called by *egterg:
     h_psi        :    229.89s CPU    230.23s WALL (   11893 calls)
     s_psi        :      7.55s CPU      7.60s WALL (   11893 calls)
     g_psi        :      2.42s CPU      2.43s WALL (    9093 calls)
     cdiaghg      :      1.48s CPU      1.49s WALL (   11693 calls)
     cegterg:over :     18.04s CPU     18.03s WALL (    9093 calls)
     cegterg:upda :      8.31s CPU      8.31s WALL (    9093 calls)
     cegterg:last :      5.15s CPU      5.17s WALL (    2890 calls)

     Called by h_psi:
     h_psi:vloc   :    209.52s CPU    209.84s WALL (   11893 calls)
     h_psi:vnl    :     19.74s CPU     19.72s WALL (   11893 calls)
     add_vuspsi   :      7.50s CPU      7.54s WALL (   11893 calls)

     General routines
     calbec       :     16.99s CPU     16.95s WALL (   14893 calls)
     fft          :      1.07s CPU      1.07s WALL (     127 calls)
     ffts         :      0.07s CPU      0.07s WALL (      27 calls)
     fftw         :    214.67s CPU    214.91s WALL (  141464 calls)
     interpolate  :      0.33s CPU      0.33s WALL (      27 calls)
     davcio       :      0.02s CPU      0.07s WALL (     200 calls)
 
     Parallel routines
     fft_scatter  :     14.74s CPU     14.70s WALL (  141618 calls)
 
     PWSCF        :  5m48.61s CPU     5m49.46s WALL

 
   This run was terminated on:  21: 8:43  28Oct2013            

=------------------------------------------------------------------------------=
   JOB DONE.
=------------------------------------------------------------------------------=
