
     Program PWSCF v.5.0        starts on 15Aug2013 at 11:57:46 

     This program is part of the open-source Quantum ESPRESSO suite
     for quantum simulation of materials; please cite
         "P. Giannozzi et al., J. Phys.:Condens. Matter 21 395502 (2009);
          URL http://www.quantum-espresso.org", 
     in publications or presentations arising from this work. More details at
     http://www.quantum-espresso.org/quote.php

     Parallel version (MPI), running on     1 processors

     Current dimensions of program PWSCF are:
     Max number of different atomic species (ntypx) = 10
     Max number of k-points (npk) =  40000
     Max angular momentum in pseudopotentials (lmaxx) =  3
     Waiting for input...
     Reading input from standard input

     Atomic positions and unit cell read from directory:
     ./ref/Gr-hex.save/
 

     Subspace diagonalization in iterative solution of the eigenvalue problem:
     a serial algorithm will be used

 kpoint style unhandled: 
 none                                                                           
  
 
     G-vector sticks info
     --------------------
     sticks:   dense  smooth     PW     G-vecs:    dense   smooth      PW
     Sum         757     379    121               136167    48207    8361
 


     bravais-lattice index     =            4
     lattice parameter (alat)  =       4.6490  a.u.
     unit-cell volume          =     696.1443 (a.u.)^3
     number of atoms/cell      =            2
     number of atomic types    =            1
     number of electrons       =         8.00
     number of Kohn-Sham states=            8
     kinetic-energy cutoff     =      64.0000  Ry
     charge density cutoff     =     512.0000  Ry
     Exchange-correlation      =  SLA  PW   PBE  PBE ( 1 4 3 4 0)
     EXX-fraction              =        0.00

     celldm(1)=   4.649000  celldm(2)=   0.000000  celldm(3)=   8.000000
     celldm(4)=   0.000000  celldm(5)=   0.000000  celldm(6)=   0.000000

     crystal axes: (cart. coord. in units of alat)
               a(1) = (   1.000000   0.000000   0.000000 )  
               a(2) = (  -0.500000   0.866025   0.000000 )  
               a(3) = (   0.000000   0.000000   8.000000 )  

     reciprocal axes: (cart. coord. in units 2 pi/alat)
               b(1) = (  1.000000  0.577350  0.000000 )  
               b(2) = (  0.000000  1.154701  0.000000 )  
               b(3) = (  0.000000  0.000000  0.125000 )  


     PseudoPot. # 1 for C  read from file:
     ./pseudo/C.pbe-van_ak.UPF
     MD5 check sum: 208ba58bdb8fe35738797ed1568e775a
     Pseudo is Ultrasoft, Zval =  4.0
     Generated by new atomic code, or converted to UPF format
     Using radial grid of  721 points,  4 beta functions with: 
                l(1) =   0
                l(2) =   0
                l(3) =   1
                l(4) =   1
     Q(r) pseudized with  8 coefficients,  rinner =    0.800   0.800   0.800


     atomic species   valence    mass     pseudopotential
        C              4.00    12.00000     C ( 1.00)

     No symmetry found


                                    s                        frac. trans.

      isym =  1     identity                                     

 cryst.   s( 1) = (     1          0          0      )
                  (     0          1          0      )
                  (     0          0          1      )

 cart.    s( 1) = (  1.0000000  0.0000000  0.0000000 )
                  (  0.0000000  1.0000000  0.0000000 )
                  (  0.0000000  0.0000000  1.0000000 )


     point group C_1 (1)    
     there are  1 classes
     the character table:

       E    
A      1.00

     the symmetry operations in each class:
     E        1

   Cartesian axes

     site n.     atom                  positions (alat units)
         1           C   tau(   1) = (   0.0000000   0.0000000   0.0000000  )
         2           C   tau(   2) = (   0.0000000   0.5771134   0.0000000  )

   Crystallographic axes

     site n.     atom                  positions (cryst. coord.)
         1           C   tau(   1) = (  0.0000000  0.0000000  0.0000000  )
         2           C   tau(   2) = (  0.3331966  0.6663931  0.0000000  )

     number of k points=    97  Fermi-Dirac smearing, width (Ry)=  0.0000
                       cart. coord. in units 2pi/alat
        k(    1) = (   0.0000000   0.0000000   0.0000000), wk =   0.0206186
        k(    2) = (   0.0104166   0.0180420   0.0000000), wk =   0.0206186
        k(    3) = (   0.0208331   0.0360840   0.0000000), wk =   0.0206186
        k(    4) = (   0.0312497   0.0541260   0.0000000), wk =   0.0206186
        k(    5) = (   0.0416663   0.0721681   0.0000000), wk =   0.0206186
        k(    6) = (   0.0520828   0.0902101   0.0000000), wk =   0.0206186
        k(    7) = (   0.0624994   0.1082521   0.0000000), wk =   0.0206186
        k(    8) = (   0.0729159   0.1262941   0.0000000), wk =   0.0206186
        k(    9) = (   0.0833325   0.1443361   0.0000000), wk =   0.0206186
        k(   10) = (   0.0937491   0.1623781   0.0000000), wk =   0.0206186
        k(   11) = (   0.1041656   0.1804202   0.0000000), wk =   0.0206186
        k(   12) = (   0.1145822   0.1984622   0.0000000), wk =   0.0206186
        k(   13) = (   0.1249988   0.2165042   0.0000000), wk =   0.0206186
        k(   14) = (   0.1354153   0.2345462   0.0000000), wk =   0.0206186
        k(   15) = (   0.1458319   0.2525882   0.0000000), wk =   0.0206186
        k(   16) = (   0.1562484   0.2706302   0.0000000), wk =   0.0206186
        k(   17) = (   0.1666650   0.2886722   0.0000000), wk =   0.0206186
        k(   18) = (   0.1770816   0.3067143   0.0000000), wk =   0.0206186
        k(   19) = (   0.1874981   0.3247563   0.0000000), wk =   0.0206186
        k(   20) = (   0.1979147   0.3427983   0.0000000), wk =   0.0206186
        k(   21) = (   0.2083313   0.3608403   0.0000000), wk =   0.0206186
        k(   22) = (   0.2187478   0.3788823   0.0000000), wk =   0.0206186
        k(   23) = (   0.2291644   0.3969243   0.0000000), wk =   0.0206186
        k(   24) = (   0.2395809   0.4149664   0.0000000), wk =   0.0206186
        k(   25) = (   0.2499975   0.4330084   0.0000000), wk =   0.0206186
        k(   26) = (   0.2604141   0.4510504   0.0000000), wk =   0.0206186
        k(   27) = (   0.2708306   0.4690924   0.0000000), wk =   0.0206186
        k(   28) = (   0.2812472   0.4871344   0.0000000), wk =   0.0206186
        k(   29) = (   0.2916637   0.5051764   0.0000000), wk =   0.0206186
        k(   30) = (   0.3020803   0.5232184   0.0000000), wk =   0.0206186
        k(   31) = (   0.3124969   0.5412605   0.0000000), wk =   0.0206186
        k(   32) = (   0.3229134   0.5593025   0.0000000), wk =   0.0206186
        k(   33) = (   0.3333300   0.5773445   0.0000000), wk =   0.0206186
        k(   34) = (   0.3385384   0.5683236   0.0000000), wk =   0.0206186
        k(   35) = (   0.3437469   0.5593027   0.0000000), wk =   0.0206186
        k(   36) = (   0.3489553   0.5502817   0.0000000), wk =   0.0206186
        k(   37) = (   0.3541637   0.5412608   0.0000000), wk =   0.0206186
        k(   38) = (   0.3593722   0.5322399   0.0000000), wk =   0.0206186
        k(   39) = (   0.3645806   0.5232190   0.0000000), wk =   0.0206186
        k(   40) = (   0.3697891   0.5141981   0.0000000), wk =   0.0206186
        k(   41) = (   0.3749975   0.5051772   0.0000000), wk =   0.0206186
        k(   42) = (   0.3802059   0.4961562   0.0000000), wk =   0.0206186
        k(   43) = (   0.3854144   0.4871353   0.0000000), wk =   0.0206186
        k(   44) = (   0.3906228   0.4781144   0.0000000), wk =   0.0206186
        k(   45) = (   0.3958313   0.4690935   0.0000000), wk =   0.0206186
        k(   46) = (   0.4010397   0.4600726   0.0000000), wk =   0.0206186
        k(   47) = (   0.4062481   0.4510517   0.0000000), wk =   0.0206186
        k(   48) = (   0.4114566   0.4420307   0.0000000), wk =   0.0206186
        k(   49) = (   0.4166650   0.4330098   0.0000000), wk =   0.0206186
        k(   50) = (   0.4218734   0.4239889   0.0000000), wk =   0.0206186
        k(   51) = (   0.4270819   0.4149680   0.0000000), wk =   0.0206186
        k(   52) = (   0.4322903   0.4059471   0.0000000), wk =   0.0206186
        k(   53) = (   0.4374987   0.3969261   0.0000000), wk =   0.0206186
        k(   54) = (   0.4427072   0.3879052   0.0000000), wk =   0.0206186
        k(   55) = (   0.4479156   0.3788843   0.0000000), wk =   0.0206186
        k(   56) = (   0.4531241   0.3698634   0.0000000), wk =   0.0206186
        k(   57) = (   0.4583325   0.3608425   0.0000000), wk =   0.0206186
        k(   58) = (   0.4635409   0.3518216   0.0000000), wk =   0.0206186
        k(   59) = (   0.4687494   0.3428006   0.0000000), wk =   0.0206186
        k(   60) = (   0.4739578   0.3337797   0.0000000), wk =   0.0206186
        k(   61) = (   0.4791663   0.3247588   0.0000000), wk =   0.0206186
        k(   62) = (   0.4843747   0.3157379   0.0000000), wk =   0.0206186
        k(   63) = (   0.4895831   0.3067170   0.0000000), wk =   0.0206186
        k(   64) = (   0.4947916   0.2976961   0.0000000), wk =   0.0206186
        k(   65) = (   0.5000000   0.2886751   0.0000000), wk =   0.0206186
        k(   66) = (   0.4843750   0.2796540   0.0000000), wk =   0.0206186
        k(   67) = (   0.4687500   0.2706329   0.0000000), wk =   0.0206186
        k(   68) = (   0.4531250   0.2616118   0.0000000), wk =   0.0206186
        k(   69) = (   0.4375000   0.2525907   0.0000000), wk =   0.0206186
        k(   70) = (   0.4218750   0.2435696   0.0000000), wk =   0.0206186
        k(   71) = (   0.4062500   0.2345485   0.0000000), wk =   0.0206186
        k(   72) = (   0.3906250   0.2255274   0.0000000), wk =   0.0206186
        k(   73) = (   0.3750000   0.2165064   0.0000000), wk =   0.0206186
        k(   74) = (   0.3593750   0.2074853   0.0000000), wk =   0.0206186
        k(   75) = (   0.3437500   0.1984642   0.0000000), wk =   0.0206186
        k(   76) = (   0.3281250   0.1894431   0.0000000), wk =   0.0206186
        k(   77) = (   0.3125000   0.1804220   0.0000000), wk =   0.0206186
        k(   78) = (   0.2968750   0.1714009   0.0000000), wk =   0.0206186
        k(   79) = (   0.2812500   0.1623798   0.0000000), wk =   0.0206186
        k(   80) = (   0.2656250   0.1533587   0.0000000), wk =   0.0206186
        k(   81) = (   0.2500000   0.1443376   0.0000000), wk =   0.0206186
        k(   82) = (   0.2343750   0.1353165   0.0000000), wk =   0.0206186
        k(   83) = (   0.2187500   0.1262954   0.0000000), wk =   0.0206186
        k(   84) = (   0.2031250   0.1172743   0.0000000), wk =   0.0206186
        k(   85) = (   0.1875000   0.1082532   0.0000000), wk =   0.0206186
        k(   86) = (   0.1718750   0.0992321   0.0000000), wk =   0.0206186
        k(   87) = (   0.1562500   0.0902110   0.0000000), wk =   0.0206186
        k(   88) = (   0.1406250   0.0811899   0.0000000), wk =   0.0206186
        k(   89) = (   0.1250000   0.0721688   0.0000000), wk =   0.0206186
        k(   90) = (   0.1093750   0.0631477   0.0000000), wk =   0.0206186
        k(   91) = (   0.0937500   0.0541266   0.0000000), wk =   0.0206186
        k(   92) = (   0.0781250   0.0451055   0.0000000), wk =   0.0206186
        k(   93) = (   0.0625000   0.0360844   0.0000000), wk =   0.0206186
        k(   94) = (   0.0468750   0.0270633   0.0000000), wk =   0.0206186
        k(   95) = (   0.0312500   0.0180422   0.0000000), wk =   0.0206186
        k(   96) = (   0.0156250   0.0090211   0.0000000), wk =   0.0206186
        k(   97) = (   0.0000000   0.0000000   0.0000000), wk =   0.0206186

                       cryst. coord.
        k(    1) = (   0.0000000   0.0000000   0.0000000), wk =   0.0206186
        k(    2) = (   0.0104166   0.0104166   0.0000000), wk =   0.0206186
        k(    3) = (   0.0208331   0.0208331   0.0000000), wk =   0.0206186
        k(    4) = (   0.0312497   0.0312497   0.0000000), wk =   0.0206186
        k(    5) = (   0.0416663   0.0416663   0.0000000), wk =   0.0206186
        k(    6) = (   0.0520828   0.0520828   0.0000000), wk =   0.0206186
        k(    7) = (   0.0624994   0.0624994   0.0000000), wk =   0.0206186
        k(    8) = (   0.0729159   0.0729159   0.0000000), wk =   0.0206186
        k(    9) = (   0.0833325   0.0833325   0.0000000), wk =   0.0206186
        k(   10) = (   0.0937491   0.0937491   0.0000000), wk =   0.0206186
        k(   11) = (   0.1041656   0.1041656   0.0000000), wk =   0.0206186
        k(   12) = (   0.1145822   0.1145822   0.0000000), wk =   0.0206186
        k(   13) = (   0.1249988   0.1249988   0.0000000), wk =   0.0206186
        k(   14) = (   0.1354153   0.1354153   0.0000000), wk =   0.0206186
        k(   15) = (   0.1458319   0.1458319   0.0000000), wk =   0.0206186
        k(   16) = (   0.1562484   0.1562484   0.0000000), wk =   0.0206186
        k(   17) = (   0.1666650   0.1666650   0.0000000), wk =   0.0206186
        k(   18) = (   0.1770816   0.1770816   0.0000000), wk =   0.0206186
        k(   19) = (   0.1874981   0.1874981   0.0000000), wk =   0.0206186
        k(   20) = (   0.1979147   0.1979147   0.0000000), wk =   0.0206186
        k(   21) = (   0.2083313   0.2083312   0.0000000), wk =   0.0206186
        k(   22) = (   0.2187478   0.2187478   0.0000000), wk =   0.0206186
        k(   23) = (   0.2291644   0.2291644   0.0000000), wk =   0.0206186
        k(   24) = (   0.2395809   0.2395809   0.0000000), wk =   0.0206186
        k(   25) = (   0.2499975   0.2499975   0.0000000), wk =   0.0206186
        k(   26) = (   0.2604141   0.2604141   0.0000000), wk =   0.0206186
        k(   27) = (   0.2708306   0.2708306   0.0000000), wk =   0.0206186
        k(   28) = (   0.2812472   0.2812472   0.0000000), wk =   0.0206186
        k(   29) = (   0.2916637   0.2916637   0.0000000), wk =   0.0206186
        k(   30) = (   0.3020803   0.3020803   0.0000000), wk =   0.0206186
        k(   31) = (   0.3124969   0.3124969   0.0000000), wk =   0.0206186
        k(   32) = (   0.3229134   0.3229134   0.0000000), wk =   0.0206186
        k(   33) = (   0.3333300   0.3333300   0.0000000), wk =   0.0206186
        k(   34) = (   0.3385384   0.3229134   0.0000000), wk =   0.0206186
        k(   35) = (   0.3437469   0.3124969   0.0000000), wk =   0.0206186
        k(   36) = (   0.3489553   0.3020803   0.0000000), wk =   0.0206186
        k(   37) = (   0.3541637   0.2916637   0.0000000), wk =   0.0206186
        k(   38) = (   0.3593722   0.2812472   0.0000000), wk =   0.0206186
        k(   39) = (   0.3645806   0.2708306   0.0000000), wk =   0.0206186
        k(   40) = (   0.3697891   0.2604141   0.0000000), wk =   0.0206186
        k(   41) = (   0.3749975   0.2499975   0.0000000), wk =   0.0206186
        k(   42) = (   0.3802059   0.2395809   0.0000000), wk =   0.0206186
        k(   43) = (   0.3854144   0.2291644   0.0000000), wk =   0.0206186
        k(   44) = (   0.3906228   0.2187478   0.0000000), wk =   0.0206186
        k(   45) = (   0.3958313   0.2083312   0.0000000), wk =   0.0206186
        k(   46) = (   0.4010397   0.1979147   0.0000000), wk =   0.0206186
        k(   47) = (   0.4062481   0.1874981   0.0000000), wk =   0.0206186
        k(   48) = (   0.4114566   0.1770816   0.0000000), wk =   0.0206186
        k(   49) = (   0.4166650   0.1666650   0.0000000), wk =   0.0206186
        k(   50) = (   0.4218734   0.1562484   0.0000000), wk =   0.0206186
        k(   51) = (   0.4270819   0.1458319   0.0000000), wk =   0.0206186
        k(   52) = (   0.4322903   0.1354153   0.0000000), wk =   0.0206186
        k(   53) = (   0.4374987   0.1249988   0.0000000), wk =   0.0206186
        k(   54) = (   0.4427072   0.1145822   0.0000000), wk =   0.0206186
        k(   55) = (   0.4479156   0.1041656   0.0000000), wk =   0.0206186
        k(   56) = (   0.4531241   0.0937491   0.0000000), wk =   0.0206186
        k(   57) = (   0.4583325   0.0833325   0.0000000), wk =   0.0206186
        k(   58) = (   0.4635409   0.0729159   0.0000000), wk =   0.0206186
        k(   59) = (   0.4687494   0.0624994   0.0000000), wk =   0.0206186
        k(   60) = (   0.4739578   0.0520828   0.0000000), wk =   0.0206186
        k(   61) = (   0.4791663   0.0416662   0.0000000), wk =   0.0206186
        k(   62) = (   0.4843747   0.0312497   0.0000000), wk =   0.0206186
        k(   63) = (   0.4895831   0.0208331   0.0000000), wk =   0.0206186
        k(   64) = (   0.4947916   0.0104166   0.0000000), wk =   0.0206186
        k(   65) = (   0.5000000   0.0000000   0.0000000), wk =   0.0206186
        k(   66) = (   0.4843750   0.0000000   0.0000000), wk =   0.0206186
        k(   67) = (   0.4687500  -0.0000000   0.0000000), wk =   0.0206186
        k(   68) = (   0.4531250   0.0000000   0.0000000), wk =   0.0206186
        k(   69) = (   0.4375000   0.0000000   0.0000000), wk =   0.0206186
        k(   70) = (   0.4218750   0.0000000   0.0000000), wk =   0.0206186
        k(   71) = (   0.4062500   0.0000000   0.0000000), wk =   0.0206186
        k(   72) = (   0.3906250  -0.0000000   0.0000000), wk =   0.0206186
        k(   73) = (   0.3750000  -0.0000000   0.0000000), wk =   0.0206186
        k(   74) = (   0.3593750   0.0000000   0.0000000), wk =   0.0206186
        k(   75) = (   0.3437500   0.0000000   0.0000000), wk =   0.0206186
        k(   76) = (   0.3281250  -0.0000000   0.0000000), wk =   0.0206186
        k(   77) = (   0.3125000   0.0000000   0.0000000), wk =   0.0206186
        k(   78) = (   0.2968750   0.0000000   0.0000000), wk =   0.0206186
        k(   79) = (   0.2812500  -0.0000000   0.0000000), wk =   0.0206186
        k(   80) = (   0.2656250   0.0000000   0.0000000), wk =   0.0206186
        k(   81) = (   0.2500000   0.0000000   0.0000000), wk =   0.0206186
        k(   82) = (   0.2343750  -0.0000000   0.0000000), wk =   0.0206186
        k(   83) = (   0.2187500   0.0000000   0.0000000), wk =   0.0206186
        k(   84) = (   0.2031250   0.0000000   0.0000000), wk =   0.0206186
        k(   85) = (   0.1875000  -0.0000000   0.0000000), wk =   0.0206186
        k(   86) = (   0.1718750   0.0000000   0.0000000), wk =   0.0206186
        k(   87) = (   0.1562500   0.0000000   0.0000000), wk =   0.0206186
        k(   88) = (   0.1406250  -0.0000000   0.0000000), wk =   0.0206186
        k(   89) = (   0.1250000   0.0000000   0.0000000), wk =   0.0206186
        k(   90) = (   0.1093750   0.0000000   0.0000000), wk =   0.0206186
        k(   91) = (   0.0937500  -0.0000000   0.0000000), wk =   0.0206186
        k(   92) = (   0.0781250   0.0000000   0.0000000), wk =   0.0206186
        k(   93) = (   0.0625000   0.0000000   0.0000000), wk =   0.0206186
        k(   94) = (   0.0468750  -0.0000000   0.0000000), wk =   0.0206186
        k(   95) = (   0.0312500   0.0000000   0.0000000), wk =   0.0206186
        k(   96) = (   0.0156250   0.0000000   0.0000000), wk =   0.0206186
        k(   97) = (   0.0000000   0.0000000   0.0000000), wk =   0.0206186

     Dense  grid:   136167 G-vectors     FFT dimensions: (  36,  36, 270)

     Smooth grid:    48207 G-vectors     FFT dimensions: (  24,  24, 192)

     Largest allocated arrays     est. size (Mb)     dimensions
        Kohn-Sham Wavefunctions         0.74 Mb     (   6080,    8)
        NL pseudopotentials             1.48 Mb     (   6080,   16)
        Each V/rho on FFT grid          5.34 Mb     ( 349920)
        Each G-vector array             1.04 Mb     ( 136167)
        G-vector shells                 0.03 Mb     (   4229)
     Largest temporary arrays     est. size (Mb)     dimensions
        Auxiliary wavefunctions         2.97 Mb     (   6080,   32)
        Each subspace H/S matrix        0.02 Mb     (  32,  32)
        Each <psi_i|beta_j> matrix      0.00 Mb     (     16,    8)

     The potential is recalculated from file :
     ./ref/Gr-hex.save/charge-density.dat


     negative rho (up, down):  0.528E-03 0.000E+00
     Starting wfc are    8 randomized atomic wfcs

     total cpu time spent up to now is        1.3 secs

     per-process dynamical memory:    65.7 Mb

     Band Structure Calculation
     Davidson diagonalization with overlap

     Computing kpt #:     1
     total cpu time spent up to now is        3.2 secs

     Computing kpt #:     2
     total cpu time spent up to now is        5.1 secs

     Computing kpt #:     3
     total cpu time spent up to now is        7.1 secs

     Computing kpt #:     4
     total cpu time spent up to now is        9.0 secs

     Computing kpt #:     5
     total cpu time spent up to now is       11.0 secs

     Computing kpt #:     6
     total cpu time spent up to now is       13.0 secs

     Computing kpt #:     7
     total cpu time spent up to now is       14.9 secs

     Computing kpt #:     8
     total cpu time spent up to now is       16.9 secs

     Computing kpt #:     9
     total cpu time spent up to now is       18.9 secs

     Computing kpt #:    10
     total cpu time spent up to now is       20.8 secs

     Computing kpt #:    11
     total cpu time spent up to now is       22.7 secs

     Computing kpt #:    12
     total cpu time spent up to now is       24.7 secs

     Computing kpt #:    13
     total cpu time spent up to now is       26.7 secs

     Computing kpt #:    14
     total cpu time spent up to now is       28.8 secs

     Computing kpt #:    15
     total cpu time spent up to now is       31.8 secs

     Computing kpt #:    16
     total cpu time spent up to now is       33.7 secs

     Computing kpt #:    17
     total cpu time spent up to now is       35.7 secs

     Computing kpt #:    18
     total cpu time spent up to now is       37.4 secs

     Computing kpt #:    19
     total cpu time spent up to now is       39.2 secs

     Computing kpt #:    20
     total cpu time spent up to now is       41.1 secs

     Computing kpt #:    21
     total cpu time spent up to now is       42.7 secs

     Computing kpt #:    22
     total cpu time spent up to now is       44.5 secs

     Computing kpt #:    23
     total cpu time spent up to now is       46.3 secs

     Computing kpt #:    24
     total cpu time spent up to now is       48.2 secs

     Computing kpt #:    25
     total cpu time spent up to now is       50.2 secs

     Computing kpt #:    26
     total cpu time spent up to now is       52.2 secs

     Computing kpt #:    27
     total cpu time spent up to now is       54.3 secs

     Computing kpt #:    28
     total cpu time spent up to now is       56.6 secs

     Computing kpt #:    29
     total cpu time spent up to now is       59.2 secs

     Computing kpt #:    30
     total cpu time spent up to now is       61.9 secs

     Computing kpt #:    31
     total cpu time spent up to now is       63.9 secs

     Computing kpt #:    32
     total cpu time spent up to now is       65.8 secs

     Computing kpt #:    33
     total cpu time spent up to now is       68.0 secs

     Computing kpt #:    34
     total cpu time spent up to now is       70.0 secs

     Computing kpt #:    35
     total cpu time spent up to now is       72.0 secs

     Computing kpt #:    36
     total cpu time spent up to now is       74.0 secs

     Computing kpt #:    37
     total cpu time spent up to now is       76.0 secs

     Computing kpt #:    38
     total cpu time spent up to now is       78.1 secs

     Computing kpt #:    39
     total cpu time spent up to now is       80.2 secs

     Computing kpt #:    40
     total cpu time spent up to now is       82.3 secs

     Computing kpt #:    41
     total cpu time spent up to now is       84.4 secs

     Computing kpt #:    42
     total cpu time spent up to now is       86.5 secs

     Computing kpt #:    43
     total cpu time spent up to now is       88.8 secs

     Computing kpt #:    44
     total cpu time spent up to now is       91.0 secs

     Computing kpt #:    45
     total cpu time spent up to now is       93.4 secs

     Computing kpt #:    46
     total cpu time spent up to now is       95.8 secs

     Computing kpt #:    47
     total cpu time spent up to now is       98.2 secs

     Computing kpt #:    48
     total cpu time spent up to now is      100.2 secs

     Computing kpt #:    49
     total cpu time spent up to now is      102.7 secs

     Computing kpt #:    50
     total cpu time spent up to now is      105.4 secs

     Computing kpt #:    51
     total cpu time spent up to now is      108.0 secs

     Computing kpt #:    52
     total cpu time spent up to now is      110.3 secs

     Computing kpt #:    53
     total cpu time spent up to now is      112.4 secs

     Computing kpt #:    54
     total cpu time spent up to now is      114.5 secs

     Computing kpt #:    55
     total cpu time spent up to now is      116.4 secs

     Computing kpt #:    56
     total cpu time spent up to now is      118.3 secs

     Computing kpt #:    57
     total cpu time spent up to now is      120.2 secs

     Computing kpt #:    58
     total cpu time spent up to now is      122.0 secs

     Computing kpt #:    59
     total cpu time spent up to now is      123.8 secs

     Computing kpt #:    60
     total cpu time spent up to now is      125.7 secs

     Computing kpt #:    61
     total cpu time spent up to now is      127.5 secs

     Computing kpt #:    62
     total cpu time spent up to now is      129.3 secs

     Computing kpt #:    63
     total cpu time spent up to now is      131.1 secs

     Computing kpt #:    64
     total cpu time spent up to now is      132.9 secs

     Computing kpt #:    65
     total cpu time spent up to now is      134.7 secs

     Computing kpt #:    66
     total cpu time spent up to now is      137.0 secs

     Computing kpt #:    67
     total cpu time spent up to now is      139.1 secs

     Computing kpt #:    68
     total cpu time spent up to now is      140.9 secs

     Computing kpt #:    69
     total cpu time spent up to now is      143.0 secs

     Computing kpt #:    70
     total cpu time spent up to now is      145.1 secs

     Computing kpt #:    71
     total cpu time spent up to now is      147.0 secs

     Computing kpt #:    72
     total cpu time spent up to now is      148.9 secs

     Computing kpt #:    73
     total cpu time spent up to now is      151.1 secs

     Computing kpt #:    74
     total cpu time spent up to now is      153.4 secs

     Computing kpt #:    75
     total cpu time spent up to now is      156.1 secs

     Computing kpt #:    76
     total cpu time spent up to now is      158.4 secs

     Computing kpt #:    77
     total cpu time spent up to now is      160.2 secs

     Computing kpt #:    78
     total cpu time spent up to now is      162.1 secs

     Computing kpt #:    79
     total cpu time spent up to now is      164.1 secs

     Computing kpt #:    80
     total cpu time spent up to now is      166.1 secs

     Computing kpt #:    81
     total cpu time spent up to now is      168.5 secs

     Computing kpt #:    82
     total cpu time spent up to now is      170.4 secs

     Computing kpt #:    83
     total cpu time spent up to now is      172.4 secs

     Computing kpt #:    84
     total cpu time spent up to now is      174.3 secs

     Computing kpt #:    85
     total cpu time spent up to now is      176.2 secs

     Computing kpt #:    86
     total cpu time spent up to now is      178.2 secs

     Computing kpt #:    87
     total cpu time spent up to now is      180.2 secs

     Computing kpt #:    88
     total cpu time spent up to now is      182.1 secs

     Computing kpt #:    89
     total cpu time spent up to now is      184.0 secs

     Computing kpt #:    90
     total cpu time spent up to now is      185.9 secs

     Computing kpt #:    91
     total cpu time spent up to now is      187.8 secs

     Computing kpt #:    92
     total cpu time spent up to now is      189.8 secs

     Computing kpt #:    93
     total cpu time spent up to now is      191.7 secs

     Computing kpt #:    94
     total cpu time spent up to now is      193.6 secs

     Computing kpt #:    95
     total cpu time spent up to now is      195.6 secs

     Computing kpt #:    96
     total cpu time spent up to now is      197.5 secs

     Computing kpt #:    97
     total cpu time spent up to now is      199.4 secs

     ethr =  1.25E-14,  avg # of iterations = 57.4

     total cpu time spent up to now is      199.4 secs

     End of band structure calculation

          k = 0.0000 0.0000 0.0000     band energies (ev):

   -21.8717  -9.9643  -5.3562  -5.3385   0.8584   1.5111   1.6345   2.6942

     occupation numbers 
     0.0206   0.0206   0.0206   0.0206   0.0000   0.0000   0.0000   0.0000

          k = 0.0104 0.0180 0.0000     band energies (ev):

   -21.8640  -9.9550  -5.3861  -5.3579   0.8689   1.5218   1.6452   2.7049

     occupation numbers 
     0.0206   0.0206   0.0206   0.0206   0.0000   0.0000   0.0000   0.0000

          k = 0.0208 0.0361 0.0000     band energies (ev):

   -21.8409  -9.9273  -5.4795  -5.4106   0.9005   1.5538   1.6774   2.7368

     occupation numbers 
     0.0206   0.0206   0.0206   0.0206   0.0000   0.0000   0.0000   0.0000

          k = 0.0312 0.0541 0.0000     band energies (ev):

   -21.8023  -9.8811  -5.6325  -5.4957   0.9531   1.6072   1.7311   2.7899

     occupation numbers 
     0.0206   0.0206   0.0206   0.0206   0.0000   0.0000   0.0000   0.0000

          k = 0.0417 0.0722 0.0000     band energies (ev):

   -21.7483  -9.8164  -5.8382  -5.6127   1.0268   1.6819   1.8062   2.8643

     occupation numbers 
     0.0206   0.0206   0.0206   0.0206   0.0000   0.0000   0.0000   0.0000

          k = 0.0521 0.0902 0.0000     band energies (ev):

   -21.6790  -9.7335  -6.0892  -5.7604   1.1216   1.7779   1.9028   2.9600

     occupation numbers 
     0.0206   0.0206   0.0206   0.0206   0.0000   0.0000   0.0000   0.0000

          k = 0.0625 0.1083 0.0000     band energies (ev):

   -21.5943  -9.6323  -6.3779  -5.9368   1.2374   1.8953   2.0209   3.0768

     occupation numbers 
     0.0206   0.0206   0.0206   0.0206   0.0000   0.0000   0.0000   0.0000

          k = 0.0729 0.1263 0.0000     band energies (ev):

   -21.4943  -9.5130  -6.6970  -6.1398   1.3743   2.0339   2.1604   3.2149

     occupation numbers 
     0.0206   0.0206   0.0206   0.0206   0.0000   0.0000   0.0000   0.0000

          k = 0.0833 0.1443 0.0000     band energies (ev):

   -21.3791  -9.3757  -7.0397  -6.3670   1.5323   2.1939   2.3214   3.3741

     occupation numbers 
     0.0206   0.0206   0.0206   0.0206   0.0000   0.0000   0.0000   0.0000

          k = 0.0937 0.1624 0.0000     band energies (ev):

   -21.2487  -9.2207  -7.4002  -6.6157   1.7113   2.3750   2.5039   3.5544

     occupation numbers 
     0.0206   0.0206   0.0206   0.0206   0.0000   0.0000   0.0000   0.0000

          k = 0.1042 0.1804 0.0000     band energies (ev):

   -21.1032  -9.0481  -7.7735  -6.8834   1.9114   2.5773   2.7079   3.7557

     occupation numbers 
     0.0206   0.0206   0.0206   0.0206   0.0000   0.0000   0.0000   0.0000

          k = 0.1146 0.1985 0.0000     band energies (ev):

   -20.9427  -8.8582  -8.1552  -7.1675   2.1324   2.8008   2.9334   3.9781

     occupation numbers 
     0.0206   0.0206   0.0206   0.0206   0.0000   0.0000   0.0000   0.0000

          k = 0.1250 0.2165 0.0000     band energies (ev):

   -20.7672  -8.6514  -8.5419  -7.4651   2.3745   3.0454   3.1803   4.2213

     occupation numbers 
     0.0206   0.0206   0.0206   0.0206   0.0000   0.0000   0.0000   0.0000

          k = 0.1354 0.2345 0.0000     band energies (ev):

   -20.5770  -8.9305  -8.4279  -7.7739   2.6374   3.3109   3.4487   4.4853

     occupation numbers 
     0.0206   0.0206   0.0206   0.0206   0.0000   0.0000   0.0000   0.0000

          k = 0.1458 0.2526 0.0000     band energies (ev):

   -20.3722  -9.3186  -8.1881  -8.0913   2.9212   3.5973   3.7386   4.7699

     occupation numbers 
     0.0206   0.0206   0.0206   0.0206   0.0000   0.0000   0.0000   0.0000

          k = 0.1562 0.2706 0.0000     band energies (ev):

   -20.1528  -9.7041  -8.4151  -7.9327   3.2258   3.9044   4.0499   4.5923

     occupation numbers 
     0.0206   0.0206   0.0206   0.0206   0.0000   0.0000   0.0000   0.0000

          k = 0.1667 0.2887 0.0000     band energies (ev):

   -19.9192 -10.0854  -8.7431  -7.6620   3.5511   4.1232   4.2320   4.3826

     occupation numbers 
     0.0206   0.0206   0.0206   0.0206   0.0000   0.0000   0.0000   0.0000

          k = 0.1771 0.3067 0.0000     band energies (ev):

   -19.6714 -10.4610  -9.0732  -7.3767   3.6543   3.8970   4.5798   4.7368

     occupation numbers 
     0.0206   0.0206   0.0206   0.0206   0.0000   0.0000   0.0000   0.0000

          k = 0.1875 0.3248 0.0000     band energies (ev):

   -19.4099 -10.8298  -9.4036  -7.0776   3.1878   4.2633   4.9474   5.1125

     occupation numbers 
     0.0206   0.0206   0.0206   0.0206   0.0000   0.0000   0.0000   0.0000

          k = 0.1979 0.3428 0.0000     band energies (ev):

   -19.1348 -11.1907  -9.7325  -6.7655   2.7257   4.6499   5.3341   5.5095

     occupation numbers 
     0.0206   0.0206   0.0206   0.0206   0.0000   0.0000   0.0000   0.0000

          k = 0.2083 0.3608 0.0000     band energies (ev):

   -18.8467 -11.5430 -10.0582  -6.4415   2.2698   5.0565   5.7389   5.9279

     occupation numbers 
     0.0206   0.0206   0.0206   0.0206   0.0000   0.0000   0.0000   0.0000

          k = 0.2187 0.3789 0.0000     band energies (ev):

   -18.5459 -11.8859 -10.3791  -6.1067   1.8217   5.4828   6.1602   6.3676

     occupation numbers 
     0.0206   0.0206   0.0206   0.0206   0.0000   0.0000   0.0000   0.0000

          k = 0.2292 0.3969 0.0000     band energies (ev):

   -18.2329 -12.2188 -10.6938  -5.7624   1.3828   5.9284   6.5950   6.8286

     occupation numbers 
     0.0206   0.0206   0.0206   0.0206   0.0000   0.0000   0.0000   0.0000

          k = 0.2396 0.4150 0.0000     band energies (ev):

   -17.9087 -12.5413 -11.0007  -5.4102   0.9542   6.3927   7.0378   7.3108

     occupation numbers 
     0.0206   0.0206   0.0206   0.0206   0.0000   0.0000   0.0000   0.0000

          k = 0.2500 0.4330 0.0000     band energies (ev):

   -17.5740 -12.8529 -11.2982  -5.0520   0.5370   6.8748   7.4770   7.8142

     occupation numbers 
     0.0206   0.0206   0.0206   0.0206   0.0000   0.0000   0.0000   0.0000

          k = 0.2604 0.4511 0.0000     band energies (ev):

   -17.2301 -13.1532 -11.5846  -4.6900   0.1322   7.3735   7.8869   8.3385

     occupation numbers 
     0.0206   0.0206   0.0206   0.0206   0.0000   0.0000   0.0000   0.0000

          k = 0.2708 0.4691 0.0000     band energies (ev):

   -16.8787 -13.4421 -11.8578  -4.3264  -0.2594   7.8867   8.2161   8.8836

     occupation numbers 
     0.0206   0.0206   0.0206   0.0206   0.0000   0.0000   0.0000   0.0000

          k = 0.2812 0.4871 0.0000     band energies (ev):

   -16.5224 -13.7191 -12.1153  -3.9642  -0.6371   8.4037   8.4113   9.4489

     occupation numbers 
     0.0206   0.0206   0.0206   0.0206   0.0000   0.0000   0.0000   0.0000

          k = 0.2917 0.5052 0.0000     band energies (ev):

   -16.1648 -13.9842 -12.3530  -3.6065  -1.0003   8.4535   8.9415  10.0334

     occupation numbers 
     0.0206   0.0206   0.0206   0.0206   0.0000   0.0000   0.0000   0.0000

          k = 0.3021 0.5232 0.0000     band energies (ev):

   -15.8120 -14.2370 -12.5654  -3.2568  -1.3484   8.4274   9.4663  10.6333

     occupation numbers 
     0.0206   0.0206   0.0206   0.0206   0.0000   0.0000   0.0000   0.0000

          k = 0.3125 0.5413 0.0000     band energies (ev):

   -15.4738 -14.4775 -12.7427  -2.9188  -1.6809   8.3785   9.9630  10.7622

     occupation numbers 
     0.0206   0.0206   0.0206   0.0206   0.0000   0.0000   0.0000   0.0000

          k = 0.3229 0.5593 0.0000     band energies (ev):

   -15.1671 -14.7055 -12.8688  -2.5964  -1.9973   8.3376  10.3803  10.7087

     occupation numbers 
     0.0206   0.0206   0.0206   0.0206   0.0000   0.0000   0.0000   0.0000

          k = 0.3333 0.5773 0.0000     band energies (ev):

   -14.9224 -14.9164 -12.9181  -2.2993  -2.2915   8.3215  10.6136  10.6193

     occupation numbers 
     0.0206   0.0206   0.0206   0.0206   0.0000   0.0000   0.0000   0.0000

          k = 0.3385 0.5683 0.0000     band energies (ev):

   -15.0239 -14.8247 -12.9045  -2.4412  -2.1504   8.3258  10.5549  10.6440

     occupation numbers 
     0.0206   0.0206   0.0206   0.0206   0.0000   0.0000   0.0000   0.0000

          k = 0.3437 0.5593 0.0000     band energies (ev):

   -15.1236 -14.7566 -12.8615  -2.5807  -2.0137   8.3394  10.4875  10.6193

     occupation numbers 
     0.0206   0.0206   0.0206   0.0206   0.0000   0.0000   0.0000   0.0000

          k = 0.3490 0.5503 0.0000     band energies (ev):

   -15.2202 -14.7141 -12.7887  -2.7159  -1.8835   8.3627  10.4139  10.5598

     occupation numbers 
     0.0206   0.0206   0.0206   0.0206   0.0000   0.0000   0.0000   0.0000

          k = 0.3542 0.5413 0.0000     band energies (ev):

   -15.3135 -14.6955 -12.6880  -2.8468  -1.7603   8.3959  10.3355  10.4755

     occupation numbers 
     0.0206   0.0206   0.0206   0.0206   0.0000   0.0000   0.0000   0.0000

          k = 0.3594 0.5322 0.0000     band energies (ev):

   -15.4036 -14.6974 -12.5631  -2.9733  -1.6441   8.4389  10.2535  10.3699

     occupation numbers 
     0.0206   0.0206   0.0206   0.0206   0.0000   0.0000   0.0000   0.0000

          k = 0.3646 0.5232 0.0000     band energies (ev):

   -15.4905 -14.7154 -12.4184  -3.0955  -1.5352   8.4916  10.1689  10.2389

     occupation numbers 
     0.0206   0.0206   0.0206   0.0206   0.0000   0.0000   0.0000   0.0000

          k = 0.3698 0.5142 0.0000     band energies (ev):

   -15.5741 -14.7456 -12.2584  -3.2133  -1.4337   8.5533  10.0724  10.0838

     occupation numbers 
     0.0206   0.0206   0.0206   0.0206   0.0000   0.0000   0.0000   0.0000

          k = 0.3750 0.5052 0.0000     band energies (ev):

   -15.6546 -14.7845 -12.0867  -3.3267  -1.3397   8.6234   9.8674   9.9965

     occupation numbers 
     0.0206   0.0206   0.0206   0.0206   0.0000   0.0000   0.0000   0.0000

          k = 0.3802 0.4962 0.0000     band energies (ev):

   -15.7317 -14.8292 -11.9066  -3.4356  -1.2530   8.7008   9.6282   9.9101

     occupation numbers 
     0.0206   0.0206   0.0206   0.0206   0.0000   0.0000   0.0000   0.0000

          k = 0.3854 0.4871 0.0000     band energies (ev):

   -15.8057 -14.8777 -11.7204  -3.5401  -1.1736   8.7843   9.3672   9.8246

     occupation numbers 
     0.0206   0.0206   0.0206   0.0206   0.0000   0.0000   0.0000   0.0000

          k = 0.3906 0.4781 0.0000     band energies (ev):

   -15.8763 -14.9284 -11.5302  -3.6400  -1.1013   8.8722   9.0934   9.7407

     occupation numbers 
     0.0206   0.0206   0.0206   0.0206   0.0000   0.0000   0.0000   0.0000

          k = 0.3958 0.4691 0.0000     band energies (ev):

   -15.9437 -14.9801 -11.3377  -3.7354  -1.0358   8.8130   8.9626   9.6587

     occupation numbers 
     0.0206   0.0206   0.0206   0.0206   0.0000   0.0000   0.0000   0.0000

          k = 0.4010 0.4601 0.0000     band energies (ev):

   -16.0079 -15.0318 -11.1443  -3.8263  -0.9768   8.5301   9.0536   9.5791

     occupation numbers 
     0.0206   0.0206   0.0206   0.0206   0.0000   0.0000   0.0000   0.0000

          k = 0.4062 0.4511 0.0000     band energies (ev):

   -16.0688 -15.0829 -10.9513  -3.9126  -0.9240   8.2476   9.1428   9.5022

     occupation numbers 
     0.0206   0.0206   0.0206   0.0206   0.0000   0.0000   0.0000   0.0000

          k = 0.4115 0.4420 0.0000     band energies (ev):

   -16.1264 -15.1327 -10.7598  -3.9944  -0.8771   7.9680   9.2276   9.4284

     occupation numbers 
     0.0206   0.0206   0.0206   0.0206   0.0000   0.0000   0.0000   0.0000

          k = 0.4167 0.4330 0.0000     band energies (ev):

   -16.1807 -15.1809 -10.5708  -4.0716  -0.8355   7.6932   9.3059   9.3579

     occupation numbers 
     0.0206   0.0206   0.0206   0.0206   0.0000   0.0000   0.0000   0.0000

          k = 0.4219 0.4240 0.0000     band energies (ev):

   -16.2317 -15.2272 -10.3854  -4.1441  -0.7990   7.4251   9.2909   9.3753

     occupation numbers 
     0.0206   0.0206   0.0206   0.0206   0.0000   0.0000   0.0000   0.0000

          k = 0.4271 0.4150 0.0000     band energies (ev):

   -16.2795 -15.2713 -10.2047  -4.2120  -0.7671   7.1651   9.2276   9.4008

     occupation numbers 
     0.0206   0.0206   0.0206   0.0206   0.0000   0.0000   0.0000   0.0000

          k = 0.4323 0.4059 0.0000     band energies (ev):

   -16.3240 -15.3129 -10.0297  -4.2754  -0.7394   6.9150   9.1681   9.3363

     occupation numbers 
     0.0206   0.0206   0.0206   0.0206   0.0000   0.0000   0.0000   0.0000

          k = 0.4375 0.3969 0.0000     band energies (ev):

   -16.3652 -15.3519  -9.8615  -4.3340  -0.7154   6.6760   9.1126   9.2763

     occupation numbers 
     0.0206   0.0206   0.0206   0.0206   0.0000   0.0000   0.0000   0.0000

          k = 0.4427 0.3879 0.0000     band energies (ev):

   -16.4031 -15.3882  -9.7010  -4.3880  -0.6949   6.4495   9.0612   9.2209

     occupation numbers 
     0.0206   0.0206   0.0206   0.0206   0.0000   0.0000   0.0000   0.0000

          k = 0.4479 0.3789 0.0000     band energies (ev):

   -16.4377 -15.4216  -9.5495  -4.4374  -0.6774   6.2370   9.0141   9.1703

     occupation numbers 
     0.0206   0.0206   0.0206   0.0206   0.0000   0.0000   0.0000   0.0000

          k = 0.4531 0.3699 0.0000     band energies (ev):

   -16.4690 -15.4521  -9.4080  -4.4820  -0.6626   6.0397   8.9712   9.1243

     occupation numbers 
     0.0206   0.0206   0.0206   0.0206   0.0000   0.0000   0.0000   0.0000

          k = 0.4583 0.3608 0.0000     band energies (ev):

   -16.4971 -15.4796  -9.2776  -4.5220  -0.6502   5.8589   8.9326   9.0830

     occupation numbers 
     0.0206   0.0206   0.0206   0.0206   0.0000   0.0000   0.0000   0.0000

          k = 0.4635 0.3518 0.0000     band energies (ev):

   -16.5218 -15.5039  -9.1593  -4.5573  -0.6399   5.6959   8.8985   9.0466

     occupation numbers 
     0.0206   0.0206   0.0206   0.0206   0.0000   0.0000   0.0000   0.0000

          k = 0.4687 0.3428 0.0000     band energies (ev):

   -16.5433 -15.5251  -9.0544  -4.5879  -0.6315   5.5519   8.8688   9.0149

     occupation numbers 
     0.0206   0.0206   0.0206   0.0206   0.0000   0.0000   0.0000   0.0000

          k = 0.4740 0.3338 0.0000     band energies (ev):

   -16.5614 -15.5431  -8.9636  -4.6138  -0.6248   5.4279   8.8436   8.9881

     occupation numbers 
     0.0206   0.0206   0.0206   0.0206   0.0000   0.0000   0.0000   0.0000

          k = 0.4792 0.3248 0.0000     band energies (ev):

   -16.5762 -15.5579  -8.8880  -4.6350  -0.6196   5.3249   8.8230   8.9661

     occupation numbers 
     0.0206   0.0206   0.0206   0.0206   0.0000   0.0000   0.0000   0.0000

          k = 0.4844 0.3157 0.0000     band energies (ev):

   -16.5878 -15.5694  -8.8282  -4.6515  -0.6156   5.2439   8.8069   8.9490

     occupation numbers 
     0.0206   0.0206   0.0206   0.0206   0.0000   0.0000   0.0000   0.0000

          k = 0.4896 0.3067 0.0000     band energies (ev):

   -16.5960 -15.5776  -8.7851  -4.6633  -0.6129   5.1855   8.7954   8.9368

     occupation numbers 
     0.0206   0.0206   0.0206   0.0206   0.0000   0.0000   0.0000   0.0000

          k = 0.4948 0.2977 0.0000     band energies (ev):

   -16.6010 -15.5826  -8.7590  -4.6703  -0.6113   5.1503   8.7885   8.9295

     occupation numbers 
     0.0206   0.0206   0.0206   0.0206   0.0000   0.0000   0.0000   0.0000

          k = 0.5000 0.2887 0.0000     band energies (ev):

   -16.6026 -15.5842  -8.7503  -4.6727  -0.6108   5.1385   8.7862   8.9270

     occupation numbers 
     0.0206   0.0206   0.0206   0.0206   0.0000   0.0000   0.0000   0.0000

          k = 0.4844 0.2797 0.0000     band energies (ev):

   -16.7046 -15.4737  -8.7445  -4.7108  -0.5635   5.1413   8.3735   9.1334

     occupation numbers 
     0.0206   0.0206   0.0206   0.0206   0.0000   0.0000   0.0000   0.0000

          k = 0.4688 0.2706 0.0000     band energies (ev):

   -16.9346 -15.2178  -8.7272  -4.8201  -0.4270   5.1499   7.9101   8.6635

     occupation numbers 
     0.0206   0.0206   0.0206   0.0206   0.0000   0.0000   0.0000   0.0000

          k = 0.4531 0.2616 0.0000     band energies (ev):

   -17.2090 -14.9004  -8.6984  -4.9876  -0.2142   5.1639   7.4582   8.2041

     occupation numbers 
     0.0206   0.0206   0.0206   0.0206   0.0000   0.0000   0.0000   0.0000

          k = 0.4375 0.2526 0.0000     band energies (ev):

   -17.4955 -14.5539  -8.6582  -5.1981   0.0593   5.1832   7.0199   7.7579

     occupation numbers 
     0.0206   0.0206   0.0206   0.0206   0.0000   0.0000   0.0000   0.0000

          k = 0.4219 0.2436 0.0000     band energies (ev):

   -17.7825 -14.1901  -8.6068  -5.4376   0.3793   5.2071   6.5963   7.3256

     occupation numbers 
     0.0206   0.0206   0.0206   0.0206   0.0000   0.0000   0.0000   0.0000

          k = 0.4062 0.2345 0.0000     band energies (ev):

   -18.0652 -13.8140  -8.5442  -5.6954   0.7342   5.2341   6.1890   6.9078

     occupation numbers 
     0.0206   0.0206   0.0206   0.0206   0.0000   0.0000   0.0000   0.0000

          k = 0.3906 0.2255 0.0000     band energies (ev):

   -18.3413 -13.4284  -8.4706  -5.9631   1.1154   5.2588   5.8034   6.5049

     occupation numbers 
     0.0206   0.0206   0.0206   0.0206   0.0000   0.0000   0.0000   0.0000

          k = 0.3750 0.2165 0.0000     band energies (ev):

   -18.6093 -13.0350  -8.3864  -6.2350   1.5161   5.2390   5.4815   6.1173

     occupation numbers 
     0.0206   0.0206   0.0206   0.0206   0.0000   0.0000   0.0000   0.0000

          k = 0.3594 0.2075 0.0000     band energies (ev):

   -18.8684 -12.6351  -8.2918  -6.5069   1.9312   4.9915   5.4049   5.7452

     occupation numbers 
     0.0206   0.0206   0.0206   0.0206   0.0000   0.0000   0.0000   0.0000

          k = 0.3438 0.1985 0.0000     band energies (ev):

   -19.1181 -12.2298  -8.1870  -6.7757   2.3564   4.6570   5.3889   5.4187

     occupation numbers 
     0.0206   0.0206   0.0206   0.0206   0.0000   0.0000   0.0000   0.0000

          k = 0.3281 0.1894 0.0000     band energies (ev):

   -19.3580 -11.8202  -8.0726  -7.0390   2.7877   4.3256   5.0491   5.1773

     occupation numbers 
     0.0206   0.0206   0.0206   0.0206   0.0000   0.0000   0.0000   0.0000

          k = 0.3125 0.1804 0.0000     band energies (ev):

   -19.5878 -11.4072  -7.9490  -7.2952   3.2205   4.0065   4.7273   4.8519

     occupation numbers 
     0.0206   0.0206   0.0206   0.0206   0.0000   0.0000   0.0000   0.0000

          k = 0.2969 0.1714 0.0000     band energies (ev):

   -19.8073 -10.9921  -7.8167  -7.5430   3.6449   3.7017   4.4302   4.5392

     occupation numbers 
     0.0206   0.0206   0.0206   0.0206   0.0000   0.0000   0.0000   0.0000

          k = 0.2812 0.1624 0.0000     band energies (ev):

   -20.0163 -10.5759  -7.7812  -7.6764   3.4117   3.9612   4.2420   4.2529

     occupation numbers 
     0.0206   0.0206   0.0206   0.0206   0.0000   0.0000   0.0000   0.0000

          k = 0.2656 0.1534 0.0000     band energies (ev):

   -20.2146 -10.1599  -8.0093  -7.5287   3.1369   3.7983   3.9605   4.5504

     occupation numbers 
     0.0206   0.0206   0.0206   0.0206   0.0000   0.0000   0.0000   0.0000

          k = 0.2500 0.1443 0.0000     band energies (ev):

   -20.4020  -9.7456  -8.2263  -7.3745   2.8774   3.5484   3.6951   4.6838

     occupation numbers 
     0.0206   0.0206   0.0206   0.0206   0.0000   0.0000   0.0000   0.0000

          k = 0.2344 0.1353 0.0000     band energies (ev):

   -20.5786  -9.3346  -8.4320  -7.2148   2.6335   3.3054   3.4456   4.4728

     occupation numbers 
     0.0206   0.0206   0.0206   0.0206   0.0000   0.0000   0.0000   0.0000

          k = 0.2188 0.1263 0.0000     band energies (ev):

   -20.7442  -8.9286  -8.6257  -7.0507   2.4050   3.0759   3.2122   4.2492

     occupation numbers 
     0.0206   0.0206   0.0206   0.0206   0.0000   0.0000   0.0000   0.0000

          k = 0.2031 0.1173 0.0000     band energies (ev):

   -20.8986  -8.8072  -8.5297  -6.8835   2.1923   2.8613   2.9949   4.0372

     occupation numbers 
     0.0206   0.0206   0.0206   0.0206   0.0000   0.0000   0.0000   0.0000

          k = 0.1875 0.1083 0.0000     band energies (ev):

   -21.0419  -8.9762  -8.1401  -6.7146   1.9951   2.6622   2.7937   3.8397

     occupation numbers 
     0.0206   0.0206   0.0206   0.0206   0.0000   0.0000   0.0000   0.0000

          k = 0.1719 0.0992 0.0000     band energies (ev):

   -21.1739  -9.1324  -7.7624  -6.5457   1.8137   2.4787   2.6085   3.6574

     occupation numbers 
     0.0206   0.0206   0.0206   0.0206   0.0000   0.0000   0.0000   0.0000

          k = 0.1562 0.0902 0.0000     band energies (ev):

   -21.2946  -9.2756  -7.3992  -6.3787   1.6479   2.3110   2.4395   3.4906

     occupation numbers 
     0.0206   0.0206   0.0206   0.0206   0.0000   0.0000   0.0000   0.0000

          k = 0.1406 0.0812 0.0000     band energies (ev):

   -21.4040  -9.4056  -7.0537  -6.2157   1.4980   2.1592   2.2865   3.3395

     occupation numbers 
     0.0206   0.0206   0.0206   0.0206   0.0000   0.0000   0.0000   0.0000

          k = 0.1250 0.0722 0.0000     band energies (ev):

   -21.5020  -9.5222  -6.7294  -6.0591   1.3637   2.0233   2.1497   3.2042

     occupation numbers 
     0.0206   0.0206   0.0206   0.0206   0.0000   0.0000   0.0000   0.0000

          k = 0.1094 0.0631 0.0000     band energies (ev):

   -21.5885  -9.6254  -6.4298  -5.9113   1.2453   1.9033   2.0289   3.0848

     occupation numbers 
     0.0206   0.0206   0.0206   0.0206   0.0000   0.0000   0.0000   0.0000

          k = 0.0938 0.0541 0.0000     band energies (ev):

   -21.6636  -9.7151  -6.1588  -5.7752   1.1426   1.7993   1.9243   2.9812

     occupation numbers 
     0.0206   0.0206   0.0206   0.0206   0.0000   0.0000   0.0000   0.0000

          k = 0.0781 0.0451 0.0000     band energies (ev):

   -21.7271  -9.7911  -5.9205  -5.6535   1.0558   1.7112   1.8357   2.8936

     occupation numbers 
     0.0206   0.0206   0.0206   0.0206   0.0000   0.0000   0.0000   0.0000

          k = 0.0625 0.0361 0.0000     band energies (ev):

   -21.7792  -9.8534  -5.7188  -5.5490   0.9847   1.6392   1.7633   2.8218

     occupation numbers 
     0.0206   0.0206   0.0206   0.0206   0.0000   0.0000   0.0000   0.0000

          k = 0.0469 0.0271 0.0000     band energies (ev):

   -21.8197  -9.9019  -5.5576  -5.4643   0.9294   1.5831   1.7069   2.7660

     occupation numbers 
     0.0206   0.0206   0.0206   0.0206   0.0000   0.0000   0.0000   0.0000

          k = 0.0312 0.0180 0.0000     band energies (ev):

   -21.8486  -9.9365  -5.4405  -5.4012   0.8900   1.5431   1.6667   2.7261

     occupation numbers 
     0.0206   0.0206   0.0206   0.0206   0.0000   0.0000   0.0000   0.0000

          k = 0.0156 0.0090 0.0000     band energies (ev):

   -21.8660  -9.9573  -5.3736  -5.3581   0.8663   1.5191   1.6425   2.7022

     occupation numbers 
     0.0206   0.0206   0.0206   0.0206   0.0000   0.0000   0.0000   0.0000

          k = 0.0000 0.0000 0.0000     band energies (ev):

   -21.8717  -9.9643  -5.3562  -5.3385   0.8584   1.5111   1.6345   2.6942

     occupation numbers 
     0.0206   0.0206   0.0206   0.0206   0.0000   0.0000   0.0000   0.0000

     the Fermi energy is    -2.2954 ev

     Writing output data file Gr-hex.save
 
     init_run     :      0.84s CPU      0.87s WALL (       1 calls)
     electrons    :    197.18s CPU    198.11s WALL (       1 calls)

     Called by init_run:
     wfcinit      :      0.00s CPU      0.00s WALL (       1 calls)
     potinit      :      0.33s CPU      0.34s WALL (       1 calls)

     Called by electrons:
     c_bands      :    197.17s CPU    198.11s WALL (       1 calls)
     v_of_rho     :      0.26s CPU      0.28s WALL (       1 calls)
     v_h          :      0.01s CPU      0.02s WALL (       1 calls)
     v_xc         :      0.25s CPU      0.26s WALL (       1 calls)
     newd         :      0.17s CPU      0.17s WALL (       1 calls)

     Called by c_bands:
     init_us_2    :      0.07s CPU      0.16s WALL (      97 calls)
     cegterg      :    190.78s CPU    191.62s WALL (     319 calls)

     Called by sum_band:

     Called by *egterg:
     h_psi        :    170.44s CPU    170.40s WALL (    5982 calls)
     s_psi        :      2.34s CPU      2.70s WALL (    5982 calls)
     g_psi        :      1.88s CPU      1.91s WALL (    5566 calls)
     cdiaghg      :      1.36s CPU      1.50s WALL (    5663 calls)
     cegterg:over :      7.38s CPU      7.50s WALL (    5566 calls)
     cegterg:upda :      5.82s CPU      6.11s WALL (    5566 calls)
     cegterg:last :      4.53s CPU      4.45s WALL (    1035 calls)

     Called by h_psi:
     h_psi:vloc   :    163.15s CPU    163.78s WALL (    5982 calls)
     h_psi:vnl    :      6.77s CPU      6.18s WALL (    5982 calls)
     add_vuspsi   :      2.86s CPU      2.73s WALL (    5982 calls)

     General routines
     calbec       :      3.90s CPU      3.43s WALL (    5982 calls)
     fft          :      0.16s CPU      0.15s WALL (      12 calls)
     ffts         :      0.00s CPU      0.01s WALL (       1 calls)
     fftw         :    139.70s CPU    139.74s WALL (   49976 calls)
     interpolate  :      0.02s CPU      0.02s WALL (       1 calls)
     davcio       :      0.02s CPU      0.03s WALL (      97 calls)
 
     Parallel routines
     fft_scatter  :      8.15s CPU      8.45s WALL (   49989 calls)
     EXX routines
 
     PWSCF        :  3m18.54s CPU     3m19.59s WALL

 
   This run was terminated on:  12: 1: 6  15Aug2013            

=------------------------------------------------------------------------------=
   JOB DONE.
=------------------------------------------------------------------------------=
