
     Program PWSCF v.5.0.2 starts on 18Oct2013 at  8:52:57 

     This program is part of the open-source Quantum ESPRESSO suite
     for quantum simulation of materials; please cite
         "P. Giannozzi et al., J. Phys.:Condens. Matter 21 395502 (2009);
          URL http://www.quantum-espresso.org", 
     in publications or presentations arising from this work. More details at
     http://www.quantum-espresso.org/quote

     Parallel version (MPI), running on     1 processors
     Waiting for input...
     Reading input from standard input
Warning: card  &SHIRLEY ignored
Warning: card   USE_SHIRLEY = .FALSE. ignored
Warning: card  / ignored

     Current dimensions of program PWSCF are:
     Max number of different atomic species (ntypx) = 10
     Max number of k-points (npk) =  40000
     Max angular momentum in pseudopotentials (lmaxx) =  3

     Atomic positions and unit cell read from directory:
     ./ref/Gr-hex.save/
 
               file C.pz-rrkjus.UPF: wavefunction(s)  2S renormalized

     Subspace diagonalization in iterative solution of the eigenvalue problem:
     a serial algorithm will be used

 
     G-vector sticks info
     --------------------
     sticks:   dense  smooth     PW     G-vecs:    dense   smooth      PW
     Sum         757     379    121               136167    48207    8361
 


     bravais-lattice index     =            4
     lattice parameter (alat)  =       4.6490  a.u.
     unit-cell volume          =     696.1443 (a.u.)^3
     number of atoms/cell      =            2
     number of atomic types    =            1
     number of electrons       =         8.00
     number of Kohn-Sham states=            8
     kinetic-energy cutoff     =      64.0000  Ry
     charge density cutoff     =     512.0000  Ry
     Exchange-correlation      =  SLA  PZ   NOGX NOGC ( 1  1  0  0 0)

     celldm(1)=   4.649000  celldm(2)=   0.000000  celldm(3)=   8.000000
     celldm(4)=   0.000000  celldm(5)=   0.000000  celldm(6)=   0.000000

     crystal axes: (cart. coord. in units of alat)
               a(1) = (   1.000000   0.000000   0.000000 )  
               a(2) = (  -0.500000   0.866025   0.000000 )  
               a(3) = (   0.000000   0.000000   8.000000 )  

     reciprocal axes: (cart. coord. in units 2 pi/alat)
               b(1) = (  1.000000  0.577350  0.000000 )  
               b(2) = (  0.000000  1.154701  0.000000 )  
               b(3) = (  0.000000  0.000000  0.125000 )  


     PseudoPot. # 1 for C  read from file:
     ../pseudo/C.pz-rrkjus.UPF
     MD5 check sum: a648be5dbf3fafdfb4e35f5396849845
     Pseudo is Ultrasoft, Zval =  4.0
     Generated by new atomic code, or converted to UPF format
     Using radial grid of 1425 points,  4 beta functions with: 
                l(1) =   0
                l(2) =   0
                l(3) =   1
                l(4) =   1
     Q(r) pseudized with 0 coefficients 


     atomic species   valence    mass     pseudopotential
        C              4.00    12.00000     C ( 1.00)

     No symmetry found


                                    s                        frac. trans.

      isym =  1     identity                                     

 cryst.   s( 1) = (     1          0          0      )
                  (     0          1          0      )
                  (     0          0          1      )

 cart.    s( 1) = (  1.0000000  0.0000000  0.0000000 )
                  (  0.0000000  1.0000000  0.0000000 )
                  (  0.0000000  0.0000000  1.0000000 )


     point group C_1 (1)    
     there are  1 classes
     the character table:

       E    
A      1.00

     the symmetry operations in each class:
     E        1

   Cartesian axes

     site n.     atom                  positions (alat units)
         1           C   tau(   1) = (   0.0000000   0.0000000   0.0000000  )
         2           C   tau(   2) = (   0.0000000   0.5771134   0.0000000  )

   Crystallographic axes

     site n.     atom                  positions (cryst. coord.)
         1           C   tau(   1) = (  0.0000000  0.0000000  0.0000000  )
         2           C   tau(   2) = (  0.3331966  0.6663931  0.0000000  )

     number of k points=    97  Fermi-Dirac smearing, width (Ry)=  0.0000
                       cart. coord. in units 2pi/alat
        k(    1) = (   0.0000000   0.0000000   0.0000000), wk =   0.0000000
        k(    2) = (   0.0104166   0.0180420   0.0000000), wk =   0.0004584
        k(    3) = (   0.0208331   0.0360840   0.0000000), wk =   0.0009168
        k(    4) = (   0.0312497   0.0541260   0.0000000), wk =   0.0013752
        k(    5) = (   0.0416663   0.0721681   0.0000000), wk =   0.0018336
        k(    6) = (   0.0520828   0.0902101   0.0000000), wk =   0.0022920
        k(    7) = (   0.0624994   0.1082521   0.0000000), wk =   0.0027504
        k(    8) = (   0.0729159   0.1262941   0.0000000), wk =   0.0032088
        k(    9) = (   0.0833325   0.1443361   0.0000000), wk =   0.0036672
        k(   10) = (   0.0937491   0.1623781   0.0000000), wk =   0.0041256
        k(   11) = (   0.1041656   0.1804202   0.0000000), wk =   0.0045840
        k(   12) = (   0.1145822   0.1984622   0.0000000), wk =   0.0050424
        k(   13) = (   0.1249988   0.2165042   0.0000000), wk =   0.0055008
        k(   14) = (   0.1354153   0.2345462   0.0000000), wk =   0.0059592
        k(   15) = (   0.1458319   0.2525882   0.0000000), wk =   0.0064176
        k(   16) = (   0.1562484   0.2706302   0.0000000), wk =   0.0068760
        k(   17) = (   0.1666650   0.2886722   0.0000000), wk =   0.0073344
        k(   18) = (   0.1770816   0.3067143   0.0000000), wk =   0.0077928
        k(   19) = (   0.1874981   0.3247563   0.0000000), wk =   0.0082512
        k(   20) = (   0.1979147   0.3427983   0.0000000), wk =   0.0087096
        k(   21) = (   0.2083313   0.3608403   0.0000000), wk =   0.0091680
        k(   22) = (   0.2187478   0.3788823   0.0000000), wk =   0.0096264
        k(   23) = (   0.2291644   0.3969243   0.0000000), wk =   0.0100848
        k(   24) = (   0.2395809   0.4149664   0.0000000), wk =   0.0105432
        k(   25) = (   0.2499975   0.4330084   0.0000000), wk =   0.0110016
        k(   26) = (   0.2604141   0.4510504   0.0000000), wk =   0.0114600
        k(   27) = (   0.2708306   0.4690924   0.0000000), wk =   0.0119184
        k(   28) = (   0.2812472   0.4871344   0.0000000), wk =   0.0123768
        k(   29) = (   0.2916637   0.5051764   0.0000000), wk =   0.0128352
        k(   30) = (   0.3020803   0.5232184   0.0000000), wk =   0.0132936
        k(   31) = (   0.3124969   0.5412605   0.0000000), wk =   0.0137520
        k(   32) = (   0.3229134   0.5593025   0.0000000), wk =   0.0142104
        k(   33) = (   0.3333300   0.5773445   0.0000000), wk =   0.0146688
        k(   34) = (   0.3385384   0.5683236   0.0000000), wk =   0.0150312
        k(   35) = (   0.3437469   0.5593027   0.0000000), wk =   0.0153936
        k(   36) = (   0.3489553   0.5502817   0.0000000), wk =   0.0157560
        k(   37) = (   0.3541637   0.5412608   0.0000000), wk =   0.0161184
        k(   38) = (   0.3593722   0.5322399   0.0000000), wk =   0.0164808
        k(   39) = (   0.3645806   0.5232190   0.0000000), wk =   0.0168432
        k(   40) = (   0.3697891   0.5141981   0.0000000), wk =   0.0172056
        k(   41) = (   0.3749975   0.5051772   0.0000000), wk =   0.0175680
        k(   42) = (   0.3802059   0.4961562   0.0000000), wk =   0.0179304
        k(   43) = (   0.3854144   0.4871353   0.0000000), wk =   0.0182928
        k(   44) = (   0.3906228   0.4781144   0.0000000), wk =   0.0186552
        k(   45) = (   0.3958313   0.4690935   0.0000000), wk =   0.0190176
        k(   46) = (   0.4010397   0.4600726   0.0000000), wk =   0.0193800
        k(   47) = (   0.4062481   0.4510517   0.0000000), wk =   0.0197424
        k(   48) = (   0.4114566   0.4420307   0.0000000), wk =   0.0201048
        k(   49) = (   0.4166650   0.4330098   0.0000000), wk =   0.0204672
        k(   50) = (   0.4218734   0.4239889   0.0000000), wk =   0.0208296
        k(   51) = (   0.4270819   0.4149680   0.0000000), wk =   0.0211920
        k(   52) = (   0.4322903   0.4059471   0.0000000), wk =   0.0215544
        k(   53) = (   0.4374987   0.3969261   0.0000000), wk =   0.0219168
        k(   54) = (   0.4427072   0.3879052   0.0000000), wk =   0.0222792
        k(   55) = (   0.4479156   0.3788843   0.0000000), wk =   0.0226416
        k(   56) = (   0.4531241   0.3698634   0.0000000), wk =   0.0230040
        k(   57) = (   0.4583325   0.3608425   0.0000000), wk =   0.0233664
        k(   58) = (   0.4635409   0.3518216   0.0000000), wk =   0.0237288
        k(   59) = (   0.4687494   0.3428006   0.0000000), wk =   0.0240912
        k(   60) = (   0.4739578   0.3337797   0.0000000), wk =   0.0244536
        k(   61) = (   0.4791663   0.3247588   0.0000000), wk =   0.0248160
        k(   62) = (   0.4843747   0.3157379   0.0000000), wk =   0.0251784
        k(   63) = (   0.4895831   0.3067170   0.0000000), wk =   0.0255408
        k(   64) = (   0.4947916   0.2976961   0.0000000), wk =   0.0259032
        k(   65) = (   0.5000000   0.2886751   0.0000000), wk =   0.0262656
        k(   66) = (   0.4843750   0.2796540   0.0000000), wk =   0.0267518
        k(   67) = (   0.4687500   0.2706329   0.0000000), wk =   0.0272380
        k(   68) = (   0.4531250   0.2616118   0.0000000), wk =   0.0277242
        k(   69) = (   0.4375000   0.2525907   0.0000000), wk =   0.0282104
        k(   70) = (   0.4218750   0.2435696   0.0000000), wk =   0.0286966
        k(   71) = (   0.4062500   0.2345485   0.0000000), wk =   0.0291828
        k(   72) = (   0.3906250   0.2255274   0.0000000), wk =   0.0296690
        k(   73) = (   0.3750000   0.2165064   0.0000000), wk =   0.0301552
        k(   74) = (   0.3593750   0.2074853   0.0000000), wk =   0.0306415
        k(   75) = (   0.3437500   0.1984642   0.0000000), wk =   0.0311277
        k(   76) = (   0.3281250   0.1894431   0.0000000), wk =   0.0316139
        k(   77) = (   0.3125000   0.1804220   0.0000000), wk =   0.0321001
        k(   78) = (   0.2968750   0.1714009   0.0000000), wk =   0.0325863
        k(   79) = (   0.2812500   0.1623798   0.0000000), wk =   0.0330725
        k(   80) = (   0.2656250   0.1533587   0.0000000), wk =   0.0335587
        k(   81) = (   0.2500000   0.1443376   0.0000000), wk =   0.0340449
        k(   82) = (   0.2343750   0.1353165   0.0000000), wk =   0.0345311
        k(   83) = (   0.2187500   0.1262954   0.0000000), wk =   0.0350174
        k(   84) = (   0.2031250   0.1172743   0.0000000), wk =   0.0355036
        k(   85) = (   0.1875000   0.1082532   0.0000000), wk =   0.0359898
        k(   86) = (   0.1718750   0.0992321   0.0000000), wk =   0.0364760
        k(   87) = (   0.1562500   0.0902110   0.0000000), wk =   0.0369622
        k(   88) = (   0.1406250   0.0811899   0.0000000), wk =   0.0374484
        k(   89) = (   0.1250000   0.0721688   0.0000000), wk =   0.0379346
        k(   90) = (   0.1093750   0.0631477   0.0000000), wk =   0.0384208
        k(   91) = (   0.0937500   0.0541266   0.0000000), wk =   0.0389070
        k(   92) = (   0.0781250   0.0451055   0.0000000), wk =   0.0393933
        k(   93) = (   0.0625000   0.0360844   0.0000000), wk =   0.0398795
        k(   94) = (   0.0468750   0.0270633   0.0000000), wk =   0.0403657
        k(   95) = (   0.0312500   0.0180422   0.0000000), wk =   0.0408519
        k(   96) = (   0.0156250   0.0090211   0.0000000), wk =   0.0413381
        k(   97) = (   0.0000000   0.0000000   0.0000000), wk =   0.0418243

                       cryst. coord.
        k(    1) = (   0.0000000   0.0000000   0.0000000), wk =   0.0000000
        k(    2) = (   0.0104166   0.0104166   0.0000000), wk =   0.0004584
        k(    3) = (   0.0208331   0.0208331   0.0000000), wk =   0.0009168
        k(    4) = (   0.0312497   0.0312497   0.0000000), wk =   0.0013752
        k(    5) = (   0.0416663   0.0416663   0.0000000), wk =   0.0018336
        k(    6) = (   0.0520828   0.0520828   0.0000000), wk =   0.0022920
        k(    7) = (   0.0624994   0.0624994   0.0000000), wk =   0.0027504
        k(    8) = (   0.0729159   0.0729159   0.0000000), wk =   0.0032088
        k(    9) = (   0.0833325   0.0833325   0.0000000), wk =   0.0036672
        k(   10) = (   0.0937491   0.0937491   0.0000000), wk =   0.0041256
        k(   11) = (   0.1041656   0.1041656   0.0000000), wk =   0.0045840
        k(   12) = (   0.1145822   0.1145822   0.0000000), wk =   0.0050424
        k(   13) = (   0.1249988   0.1249988   0.0000000), wk =   0.0055008
        k(   14) = (   0.1354153   0.1354153   0.0000000), wk =   0.0059592
        k(   15) = (   0.1458319   0.1458319   0.0000000), wk =   0.0064176
        k(   16) = (   0.1562484   0.1562484   0.0000000), wk =   0.0068760
        k(   17) = (   0.1666650   0.1666650   0.0000000), wk =   0.0073344
        k(   18) = (   0.1770816   0.1770816   0.0000000), wk =   0.0077928
        k(   19) = (   0.1874981   0.1874981   0.0000000), wk =   0.0082512
        k(   20) = (   0.1979147   0.1979147   0.0000000), wk =   0.0087096
        k(   21) = (   0.2083313   0.2083312   0.0000000), wk =   0.0091680
        k(   22) = (   0.2187478   0.2187478   0.0000000), wk =   0.0096264
        k(   23) = (   0.2291644   0.2291644   0.0000000), wk =   0.0100848
        k(   24) = (   0.2395809   0.2395809   0.0000000), wk =   0.0105432
        k(   25) = (   0.2499975   0.2499975   0.0000000), wk =   0.0110016
        k(   26) = (   0.2604141   0.2604141   0.0000000), wk =   0.0114600
        k(   27) = (   0.2708306   0.2708306   0.0000000), wk =   0.0119184
        k(   28) = (   0.2812472   0.2812472   0.0000000), wk =   0.0123768
        k(   29) = (   0.2916637   0.2916637   0.0000000), wk =   0.0128352
        k(   30) = (   0.3020803   0.3020803   0.0000000), wk =   0.0132936
        k(   31) = (   0.3124969   0.3124969   0.0000000), wk =   0.0137520
        k(   32) = (   0.3229134   0.3229134   0.0000000), wk =   0.0142104
        k(   33) = (   0.3333300   0.3333300   0.0000000), wk =   0.0146688
        k(   34) = (   0.3385384   0.3229134   0.0000000), wk =   0.0150312
        k(   35) = (   0.3437469   0.3124969   0.0000000), wk =   0.0153936
        k(   36) = (   0.3489553   0.3020803   0.0000000), wk =   0.0157560
        k(   37) = (   0.3541637   0.2916637   0.0000000), wk =   0.0161184
        k(   38) = (   0.3593722   0.2812472   0.0000000), wk =   0.0164808
        k(   39) = (   0.3645806   0.2708306   0.0000000), wk =   0.0168432
        k(   40) = (   0.3697891   0.2604141   0.0000000), wk =   0.0172056
        k(   41) = (   0.3749975   0.2499975   0.0000000), wk =   0.0175680
        k(   42) = (   0.3802059   0.2395809   0.0000000), wk =   0.0179304
        k(   43) = (   0.3854144   0.2291644   0.0000000), wk =   0.0182928
        k(   44) = (   0.3906228   0.2187478   0.0000000), wk =   0.0186552
        k(   45) = (   0.3958313   0.2083312   0.0000000), wk =   0.0190176
        k(   46) = (   0.4010397   0.1979147   0.0000000), wk =   0.0193800
        k(   47) = (   0.4062481   0.1874981   0.0000000), wk =   0.0197424
        k(   48) = (   0.4114566   0.1770816   0.0000000), wk =   0.0201048
        k(   49) = (   0.4166650   0.1666650   0.0000000), wk =   0.0204672
        k(   50) = (   0.4218734   0.1562484   0.0000000), wk =   0.0208296
        k(   51) = (   0.4270819   0.1458319   0.0000000), wk =   0.0211920
        k(   52) = (   0.4322903   0.1354153   0.0000000), wk =   0.0215544
        k(   53) = (   0.4374987   0.1249988   0.0000000), wk =   0.0219168
        k(   54) = (   0.4427072   0.1145822   0.0000000), wk =   0.0222792
        k(   55) = (   0.4479156   0.1041656   0.0000000), wk =   0.0226416
        k(   56) = (   0.4531241   0.0937491   0.0000000), wk =   0.0230040
        k(   57) = (   0.4583325   0.0833325   0.0000000), wk =   0.0233664
        k(   58) = (   0.4635409   0.0729159   0.0000000), wk =   0.0237288
        k(   59) = (   0.4687494   0.0624994   0.0000000), wk =   0.0240912
        k(   60) = (   0.4739578   0.0520828   0.0000000), wk =   0.0244536
        k(   61) = (   0.4791663   0.0416662   0.0000000), wk =   0.0248160
        k(   62) = (   0.4843747   0.0312497   0.0000000), wk =   0.0251784
        k(   63) = (   0.4895831   0.0208331   0.0000000), wk =   0.0255408
        k(   64) = (   0.4947916   0.0104166   0.0000000), wk =   0.0259032
        k(   65) = (   0.5000000   0.0000000   0.0000000), wk =   0.0262656
        k(   66) = (   0.4843750   0.0000000   0.0000000), wk =   0.0267518
        k(   67) = (   0.4687500  -0.0000000   0.0000000), wk =   0.0272380
        k(   68) = (   0.4531250   0.0000000   0.0000000), wk =   0.0277242
        k(   69) = (   0.4375000   0.0000000   0.0000000), wk =   0.0282104
        k(   70) = (   0.4218750   0.0000000   0.0000000), wk =   0.0286966
        k(   71) = (   0.4062500   0.0000000   0.0000000), wk =   0.0291828
        k(   72) = (   0.3906250  -0.0000000   0.0000000), wk =   0.0296690
        k(   73) = (   0.3750000  -0.0000000   0.0000000), wk =   0.0301552
        k(   74) = (   0.3593750   0.0000000   0.0000000), wk =   0.0306415
        k(   75) = (   0.3437500   0.0000000   0.0000000), wk =   0.0311277
        k(   76) = (   0.3281250  -0.0000000   0.0000000), wk =   0.0316139
        k(   77) = (   0.3125000   0.0000000   0.0000000), wk =   0.0321001
        k(   78) = (   0.2968750   0.0000000   0.0000000), wk =   0.0325863
        k(   79) = (   0.2812500  -0.0000000   0.0000000), wk =   0.0330725
        k(   80) = (   0.2656250   0.0000000   0.0000000), wk =   0.0335587
        k(   81) = (   0.2500000   0.0000000   0.0000000), wk =   0.0340449
        k(   82) = (   0.2343750  -0.0000000   0.0000000), wk =   0.0345311
        k(   83) = (   0.2187500   0.0000000   0.0000000), wk =   0.0350174
        k(   84) = (   0.2031250   0.0000000   0.0000000), wk =   0.0355036
        k(   85) = (   0.1875000  -0.0000000   0.0000000), wk =   0.0359898
        k(   86) = (   0.1718750   0.0000000   0.0000000), wk =   0.0364760
        k(   87) = (   0.1562500   0.0000000   0.0000000), wk =   0.0369622
        k(   88) = (   0.1406250  -0.0000000   0.0000000), wk =   0.0374484
        k(   89) = (   0.1250000   0.0000000   0.0000000), wk =   0.0379346
        k(   90) = (   0.1093750   0.0000000   0.0000000), wk =   0.0384208
        k(   91) = (   0.0937500  -0.0000000   0.0000000), wk =   0.0389070
        k(   92) = (   0.0781250   0.0000000   0.0000000), wk =   0.0393933
        k(   93) = (   0.0625000   0.0000000   0.0000000), wk =   0.0398795
        k(   94) = (   0.0468750  -0.0000000   0.0000000), wk =   0.0403657
        k(   95) = (   0.0312500   0.0000000   0.0000000), wk =   0.0408519
        k(   96) = (   0.0156250   0.0000000   0.0000000), wk =   0.0413381
        k(   97) = (   0.0000000   0.0000000   0.0000000), wk =   0.0418243

     Dense  grid:   136167 G-vectors     FFT dimensions: (  36,  36, 270)

     Smooth grid:    48207 G-vectors     FFT dimensions: (  24,  24, 192)

     Largest allocated arrays     est. size (Mb)     dimensions
        Kohn-Sham Wavefunctions         0.74 Mb     (    6080,    8)
        NL pseudopotentials             1.48 Mb     (    6080,   16)
        Each V/rho on FFT grid          5.34 Mb     (  349920)
        Each G-vector array             1.04 Mb     (  136167)
        G-vector shells                 0.03 Mb     (    4229)
     Largest temporary arrays     est. size (Mb)     dimensions
        Auxiliary wavefunctions         2.97 Mb     (    6080,   32)
        Each subspace H/S matrix        0.02 Mb     (      32,   32)
        Each <psi_i|beta_j> matrix      0.00 Mb     (      16,    8)

     The potential is recalculated from file :
     ./ref/Gr-hex.save/charge-density.dat


     negative rho (up, down):  1.059E-05 0.000E+00
     Starting wfc are    8 randomized atomic wfcs

     Band Structure Calculation
     Davidson diagonalization with overlap

     Computing kpt #:     1
     total cpu time spent up to now is        3.3 secs

     Computing kpt #:     2
     total cpu time spent up to now is        5.2 secs

     Computing kpt #:     3
     total cpu time spent up to now is        7.3 secs

     Computing kpt #:     4
     total cpu time spent up to now is        9.4 secs

     Computing kpt #:     5
     total cpu time spent up to now is       11.4 secs

     Computing kpt #:     6
     total cpu time spent up to now is       13.3 secs

     Computing kpt #:     7
     total cpu time spent up to now is       15.4 secs

     Computing kpt #:     8
     total cpu time spent up to now is       17.3 secs

     Computing kpt #:     9
     total cpu time spent up to now is       19.4 secs

     Computing kpt #:    10
     total cpu time spent up to now is       21.5 secs

     Computing kpt #:    11
     total cpu time spent up to now is       23.6 secs

     Computing kpt #:    12
     total cpu time spent up to now is       25.8 secs

     Computing kpt #:    13
     total cpu time spent up to now is       28.0 secs

     Computing kpt #:    14
     total cpu time spent up to now is       30.6 secs

     Computing kpt #:    15
     total cpu time spent up to now is       32.6 secs

     Computing kpt #:    16
     total cpu time spent up to now is       34.5 secs

     Computing kpt #:    17
     total cpu time spent up to now is       36.3 secs

     Computing kpt #:    18
     total cpu time spent up to now is       38.1 secs

     Computing kpt #:    19
     total cpu time spent up to now is       39.8 secs

     Computing kpt #:    20
     total cpu time spent up to now is       41.7 secs

     Computing kpt #:    21
     total cpu time spent up to now is       43.5 secs

     Computing kpt #:    22
     total cpu time spent up to now is       45.2 secs

     Computing kpt #:    23
     total cpu time spent up to now is       47.1 secs

     Computing kpt #:    24
     total cpu time spent up to now is       49.0 secs

     Computing kpt #:    25
     total cpu time spent up to now is       50.9 secs

     Computing kpt #:    26
     total cpu time spent up to now is       53.0 secs

     Computing kpt #:    27
     total cpu time spent up to now is       55.1 secs

     Computing kpt #:    28
     total cpu time spent up to now is       57.6 secs

     Computing kpt #:    29
     c_bands:  1 eigenvalues not converged
     total cpu time spent up to now is       60.3 secs

     Computing kpt #:    30
     total cpu time spent up to now is       62.3 secs

     Computing kpt #:    31
     total cpu time spent up to now is       64.4 secs

     Computing kpt #:    32
     total cpu time spent up to now is       66.5 secs

     Computing kpt #:    33
     total cpu time spent up to now is       68.3 secs

     Computing kpt #:    34
     total cpu time spent up to now is       70.2 secs

     Computing kpt #:    35
     total cpu time spent up to now is       72.1 secs

     Computing kpt #:    36
     total cpu time spent up to now is       74.2 secs

     Computing kpt #:    37
     total cpu time spent up to now is       76.3 secs

     Computing kpt #:    38
     total cpu time spent up to now is       78.4 secs

     Computing kpt #:    39
     total cpu time spent up to now is       80.6 secs

     Computing kpt #:    40
     total cpu time spent up to now is       82.7 secs

     Computing kpt #:    41
     total cpu time spent up to now is       84.9 secs

     Computing kpt #:    42
     total cpu time spent up to now is       87.2 secs

     Computing kpt #:    43
     total cpu time spent up to now is       89.6 secs

     Computing kpt #:    44
     total cpu time spent up to now is       92.1 secs

     Computing kpt #:    45
     total cpu time spent up to now is       94.6 secs

     Computing kpt #:    46
     total cpu time spent up to now is       97.2 secs

     Computing kpt #:    47
     total cpu time spent up to now is       99.6 secs

     Computing kpt #:    48
     total cpu time spent up to now is      102.2 secs

     Computing kpt #:    49
     total cpu time spent up to now is      105.1 secs

     Computing kpt #:    50
     total cpu time spent up to now is      107.9 secs

     Computing kpt #:    51
     total cpu time spent up to now is      110.6 secs

     Computing kpt #:    52
     total cpu time spent up to now is      113.1 secs

     Computing kpt #:    53
     total cpu time spent up to now is      115.3 secs

     Computing kpt #:    54
     total cpu time spent up to now is      117.3 secs

     Computing kpt #:    55
     total cpu time spent up to now is      119.3 secs

     Computing kpt #:    56
     total cpu time spent up to now is      121.1 secs

     Computing kpt #:    57
     total cpu time spent up to now is      122.8 secs

     Computing kpt #:    58
     total cpu time spent up to now is      124.6 secs

     Computing kpt #:    59
     total cpu time spent up to now is      126.3 secs

     Computing kpt #:    60
     total cpu time spent up to now is      128.0 secs

     Computing kpt #:    61
     total cpu time spent up to now is      129.6 secs

     Computing kpt #:    62
     total cpu time spent up to now is      131.3 secs

     Computing kpt #:    63
     total cpu time spent up to now is      132.9 secs

     Computing kpt #:    64
     total cpu time spent up to now is      134.6 secs

     Computing kpt #:    65
     total cpu time spent up to now is      136.2 secs

     Computing kpt #:    66
     total cpu time spent up to now is      138.6 secs

     Computing kpt #:    67
     total cpu time spent up to now is      140.4 secs

     Computing kpt #:    68
     total cpu time spent up to now is      142.1 secs

     Computing kpt #:    69
     total cpu time spent up to now is      143.8 secs

     Computing kpt #:    70
     total cpu time spent up to now is      145.7 secs

     Computing kpt #:    71
     total cpu time spent up to now is      147.7 secs

     Computing kpt #:    72
     total cpu time spent up to now is      149.6 secs

     Computing kpt #:    73
     total cpu time spent up to now is      151.3 secs

     Computing kpt #:    74
     total cpu time spent up to now is      153.4 secs

     Computing kpt #:    75
     total cpu time spent up to now is      155.5 secs

     Computing kpt #:    76
     total cpu time spent up to now is      157.7 secs

     Computing kpt #:    77
     total cpu time spent up to now is      160.2 secs

     Computing kpt #:    78
     total cpu time spent up to now is      162.7 secs

     Computing kpt #:    79
     total cpu time spent up to now is      165.0 secs

     Computing kpt #:    80
     total cpu time spent up to now is      167.3 secs

     Computing kpt #:    81
     total cpu time spent up to now is      169.6 secs

     Computing kpt #:    82
     total cpu time spent up to now is      172.3 secs

     Computing kpt #:    83
     total cpu time spent up to now is      174.5 secs

     Computing kpt #:    84
     total cpu time spent up to now is      176.8 secs

     Computing kpt #:    85
     total cpu time spent up to now is      179.0 secs

     Computing kpt #:    86
     total cpu time spent up to now is      181.2 secs

     Computing kpt #:    87
     total cpu time spent up to now is      183.2 secs

     Computing kpt #:    88
     total cpu time spent up to now is      185.2 secs

     Computing kpt #:    89
     total cpu time spent up to now is      187.1 secs

     Computing kpt #:    90
     total cpu time spent up to now is      189.3 secs

     Computing kpt #:    91
     total cpu time spent up to now is      191.4 secs

     Computing kpt #:    92
     total cpu time spent up to now is      193.4 secs

     Computing kpt #:    93
     total cpu time spent up to now is      195.5 secs

     Computing kpt #:    94
     total cpu time spent up to now is      197.6 secs

     Computing kpt #:    95
     total cpu time spent up to now is      199.6 secs

     Computing kpt #:    96
     total cpu time spent up to now is      201.5 secs

     Computing kpt #:    97
     total cpu time spent up to now is      203.6 secs

     ethr =  1.25E-14,  avg # of iterations = 67.0

     total cpu time spent up to now is      203.6 secs

     End of band structure calculation

          k = 0.0000 0.0000 0.0000 (  5945 PWs)   bands (ev):

   -21.9440 -10.2857  -5.6860  -5.6684   0.7909   1.7311   1.9964   2.9577

     occupation numbers 
     0.0000   0.0000   0.0000   0.0000   0.0000   0.0000   0.0000   0.0000

          k = 0.0104 0.0180 0.0000 (  5951 PWs)   bands (ev):

   -21.9363 -10.2764  -5.7149  -5.6875   0.8013   1.7417   2.0072   2.9683

     occupation numbers 
     1.0000   1.0000   1.0000   1.0000   0.0000   0.0000   0.0000   0.0000

          k = 0.0208 0.0361 0.0000 (  5955 PWs)   bands (ev):

   -21.9133 -10.2486  -5.8052  -5.7399   0.8326   1.7735   2.0394   3.0002

     occupation numbers 
     1.0000   1.0000   1.0000   1.0000   0.0000   0.0000   0.0000   0.0000

          k = 0.0312 0.0541 0.0000 (  5971 PWs)   bands (ev):

   -21.8751 -10.2024  -5.9533  -5.8245   0.8846   1.8265   2.0932   3.0533

     occupation numbers 
     1.0000   1.0000   1.0000   1.0000   0.0000   0.0000   0.0000   0.0000

          k = 0.0417 0.0722 0.0000 (  5954 PWs)   bands (ev):

   -21.8215 -10.1376  -6.1526  -5.9409   0.9575   1.9007   2.1684   3.1277

     occupation numbers 
     1.0000   1.0000   1.0000   1.0000   0.0000   0.0000   0.0000   0.0000

          k = 0.0521 0.0902 0.0000 (  5960 PWs)   bands (ev):

   -21.7527 -10.0545  -6.3960  -6.0877   1.0512   1.9960   2.2652   3.2232

     occupation numbers 
     1.0000   1.0000   1.0000   1.0000   0.0000   0.0000   0.0000   0.0000

          k = 0.0625 0.1083 0.0000 (  5952 PWs)   bands (ev):

   -21.6687  -9.9532  -6.6762  -6.2631   1.1658   2.1124   2.3835   3.3400

     occupation numbers 
     1.0000   1.0000   1.0000   1.0000   0.0000   0.0000   0.0000   0.0000

          k = 0.0729 0.1263 0.0000 (  5952 PWs)   bands (ev):

   -21.5694  -9.8337  -6.9862  -6.4648   1.3012   2.2500   2.5233   3.4779

     occupation numbers 
     1.0000   1.0000   1.0000   1.0000   0.0000   0.0000   0.0000   0.0000

          k = 0.0833 0.1443 0.0000 (  5956 PWs)   bands (ev):

   -21.4551  -9.6963  -7.3194  -6.6907   1.4574   2.4086   2.6846   3.6370

     occupation numbers 
     1.0000   1.0000   1.0000   1.0000   0.0000   0.0000   0.0000   0.0000

          k = 0.0937 0.1624 0.0000 (  5962 PWs)   bands (ev):

   -21.3257  -9.5410  -7.6702  -6.9380   1.6345   2.5881   2.8674   3.8171

     occupation numbers 
     1.0000   1.0000   1.0000   1.0000   0.0000   0.0000   0.0000   0.0000

          k = 0.1042 0.1804 0.0000 (  5976 PWs)   bands (ev):

   -21.1813  -9.3681  -8.0337  -7.2041   1.8325   2.7886   3.0717   4.0182

     occupation numbers 
     1.0000   1.0000   1.0000   1.0000   0.0000   0.0000   0.0000   0.0000

          k = 0.1146 0.1985 0.0000 (  5990 PWs)   bands (ev):

   -21.0220  -9.1780  -8.4057  -7.4865   2.0512   3.0099   3.2976   4.2403

     occupation numbers 
     1.0000   1.0000   1.0000   1.0000   0.0000   0.0000   0.0000   0.0000

          k = 0.1250 0.2165 0.0000 (  5990 PWs)   bands (ev):

   -20.8479  -8.9708  -8.7826  -7.7825   2.2906   3.2518   3.5449   4.4832

     occupation numbers 
     1.0000   1.0000   1.0000   1.0000   0.0000   0.0000   0.0000   0.0000

          k = 0.1354 0.2345 0.0000 (  6002 PWs)   bands (ev):

   -20.6591  -9.1617  -8.7469  -8.0896   2.5507   3.5143   3.8138   4.7469

     occupation numbers 
     1.0000   1.0000   1.0000   1.0000   0.0000   0.0000   0.0000   0.0000

          k = 0.1458 0.2526 0.0000 (  6000 PWs)   bands (ev):

   -20.4558  -9.5403  -8.5068  -8.4054   2.8314   3.7970   4.1041   4.6831

     occupation numbers 
     1.0000   1.0000   1.0000   1.0000   0.0000   0.0000   0.0000   0.0000

          k = 0.1562 0.2706 0.0000 (  6014 PWs)   bands (ev):

   -20.2381  -9.9167  -8.7275  -8.2508   3.1326   4.0997   4.2228   4.4160

     occupation numbers 
     1.0000   1.0000   1.0000   1.0000   0.0000   0.0000   0.0000   0.0000

          k = 0.1667 0.2887 0.0000 (  6030 PWs)   bands (ev):

   -20.0061 -10.2889  -9.0539  -7.9796   3.4542   3.7596   4.4220   4.7494

     occupation numbers 
     1.0000   1.0000   1.0000   1.0000   0.0000   0.0000   0.0000   0.0000

          k = 0.1771 0.3067 0.0000 (  6032 PWs)   bands (ev):

   -19.7602 -10.6557  -9.3826  -7.6938   3.2961   3.7960   4.7633   5.1042

     occupation numbers 
     1.0000   1.0000   1.0000   1.0000   0.0000   0.0000   0.0000   0.0000

          k = 0.1875 0.3248 0.0000 (  6050 PWs)   bands (ev):

   -19.5005 -11.0159  -9.7116  -7.3942   2.8346   4.1579   5.1227   5.4805

     occupation numbers 
     1.0000   1.0000   1.0000   1.0000   0.0000   0.0000   0.0000   0.0000

          k = 0.1979 0.3428 0.0000 (  6040 PWs)   bands (ev):

   -19.2273 -11.3684 -10.0393  -7.0815   2.3772   4.5396   5.4989   5.8782

     occupation numbers 
     1.0000   1.0000   1.0000   1.0000   0.0000   0.0000   0.0000   0.0000

          k = 0.2083 0.3608 0.0000 (  6052 PWs)   bands (ev):

   -18.9410 -11.7125 -10.3640  -6.7568   1.9257   4.9408   5.8897   6.2974

     occupation numbers 
     1.0000   1.0000   1.0000   1.0000   0.0000   0.0000   0.0000   0.0000

          k = 0.2187 0.3789 0.0000 (  6034 PWs)   bands (ev):

   -18.6421 -12.0476 -10.6842  -6.4213   1.4816   5.3610   6.2916   6.7380

     occupation numbers 
     1.0000   1.0000   1.0000   1.0000   0.0000   0.0000   0.0000   0.0000

          k = 0.2292 0.3969 0.0000 (  6038 PWs)   bands (ev):

   -18.3310 -12.3729 -10.9984  -6.0763   1.0463   5.7998   6.6983   7.1999

     occupation numbers 
     1.0000   1.0000   1.0000   1.0000   0.0000   0.0000   0.0000   0.0000

          k = 0.2396 0.4150 0.0000 (  6052 PWs)   bands (ev):

   -18.0084 -12.6880 -11.3053  -5.7234   0.6212   6.2564   7.0980   7.6832

     occupation numbers 
     1.0000   1.0000   1.0000   1.0000   0.0000   0.0000   0.0000   0.0000

          k = 0.2500 0.4330 0.0000 (  6042 PWs)   bands (ev):

   -17.6751 -12.9925 -11.6033  -5.3645   0.2071   6.7296   7.4678   8.1876

     occupation numbers 
     1.0000   1.0000   1.0000   1.0000   0.0000   0.0000   0.0000   0.0000

          k = 0.2604 0.4511 0.0000 (  6046 PWs)   bands (ev):

   -17.3323 -13.2860 -11.8907  -5.0018  -0.1948   7.2179   7.7684   8.7130

     occupation numbers 
     1.0000   1.0000   1.0000   1.0000   0.0000   0.0000   0.0000   0.0000

          k = 0.2708 0.4691 0.0000 (  6040 PWs)   bands (ev):

   -16.9816 -13.5682 -12.1658  -4.6376  -0.5838   7.7188   7.9542   9.2591

     occupation numbers 
     1.0000   1.0000   1.0000   1.0000   0.0000   0.0000   0.0000   0.0000

          k = 0.2812 0.4871 0.0000 (  6042 PWs)   bands (ev):

   -16.6252 -13.8390 -12.4261  -4.2749  -0.9590   8.0156   8.2282   9.8246

     occupation numbers 
     1.0000   1.0000   1.0000   1.0000   0.0000   0.0000   0.0000   0.0000

          k = 0.2917 0.5052 0.0000 (  6062 PWs)   bands (ev):

   -16.2666 -14.0979 -12.6681  -3.9169  -1.3200   7.9917   8.7394  10.4001

     occupation numbers 
     1.0000   1.0000   1.0000   1.0000   0.0000   0.0000   0.0000   0.0000

          k = 0.3021 0.5232 0.0000 (  6080 PWs)   bands (ev):

   -15.9115 -14.3450 -12.8863  -3.5671  -1.6660   7.9304   9.2397  10.4207

     occupation numbers 
     1.0000   1.0000   1.0000   1.0000   0.0000   0.0000   0.0000   0.0000

          k = 0.3125 0.5413 0.0000 (  6080 PWs)   bands (ev):

   -15.5697 -14.5800 -13.0711  -3.2293  -1.9966   7.8656   9.7047  10.4100

     occupation numbers 
     1.0000   1.0000   1.0000   1.0000   0.0000   0.0000   0.0000   0.0000

          k = 0.3229 0.5593 0.0000 (  6064 PWs)   bands (ev):

   -15.2592 -14.8027 -13.2051  -2.9077  -2.3113   7.8178  10.0836  10.3652

     occupation numbers 
     1.0000   1.0000   1.0000   1.0000   0.0000   0.0000   0.0000   0.0000

          k = 0.3333 0.5773 0.0000 (  6042 PWs)   bands (ev):

   -15.0147 -15.0089 -13.2587  -2.6117  -2.6040   7.7999  10.2853  10.2915

     occupation numbers 
     1.0000   1.0000   1.0000   1.0000   0.0000   0.0000   0.0000   0.0000

          k = 0.3385 0.5683 0.0000 (  6060 PWs)   bands (ev):

   -15.1139 -14.9211 -13.2436  -2.7529  -2.4637   7.8046  10.2362  10.3113

     occupation numbers 
     1.0000   1.0000   1.0000   1.0000   0.0000   0.0000   0.0000   0.0000

          k = 0.3437 0.5593 0.0000 (  6058 PWs)   bands (ev):

   -15.2113 -14.8603 -13.1959  -2.8916  -2.3280   7.8193  10.1791  10.2887

     occupation numbers 
     1.0000   1.0000   1.0000   1.0000   0.0000   0.0000   0.0000   0.0000

          k = 0.3490 0.5503 0.0000 (  6058 PWs)   bands (ev):

   -15.3056 -14.8279 -13.1156  -3.0262  -2.1990   7.8444  10.1162  10.2345

     occupation numbers 
     1.0000   1.0000   1.0000   1.0000   0.0000   0.0000   0.0000   0.0000

          k = 0.3542 0.5413 0.0000 (  6070 PWs)   bands (ev):

   -15.3968 -14.8212 -13.0058  -3.1564  -2.0770   7.8801  10.0486  10.1554

     occupation numbers 
     1.0000   1.0000   1.0000   1.0000   0.0000   0.0000   0.0000   0.0000

          k = 0.3594 0.5322 0.0000 (  6078 PWs)   bands (ev):

   -15.4849 -14.8351 -12.8717  -3.2824  -1.9623   7.9264   9.9772  10.0515

     occupation numbers 
     1.0000   1.0000   1.0000   1.0000   0.0000   0.0000   0.0000   0.0000

          k = 0.3646 0.5232 0.0000 (  6064 PWs)   bands (ev):

   -15.5697 -14.8645 -12.7187  -3.4040  -1.8551   7.9830   9.9025   9.9164

     occupation numbers 
     1.0000   1.0000   1.0000   1.0000   0.0000   0.0000   0.0000   0.0000

          k = 0.3698 0.5142 0.0000 (  6058 PWs)   bands (ev):

   -15.6515 -14.9047 -12.5516  -3.5212  -1.7554   8.0496   9.7400   9.8274

     occupation numbers 
     1.0000   1.0000   1.0000   1.0000   0.0000   0.0000   0.0000   0.0000

          k = 0.3750 0.5052 0.0000 (  6066 PWs)   bands (ev):

   -15.7300 -14.9522 -12.3745  -3.6341  -1.6632   8.1256   9.5270   9.7503

     occupation numbers 
     1.0000   1.0000   1.0000   1.0000   0.0000   0.0000   0.0000   0.0000

          k = 0.3802 0.4962 0.0000 (  6064 PWs)   bands (ev):

   -15.8054 -15.0043 -12.1902  -3.7425  -1.5785   8.2101   9.2869   9.6729

     occupation numbers 
     1.0000   1.0000   1.0000   1.0000   0.0000   0.0000   0.0000   0.0000

          k = 0.3854 0.4871 0.0000 (  6068 PWs)   bands (ev):

   -15.8776 -15.0590 -12.0012  -3.8464  -1.5012   8.3021   9.0297   9.5958

     occupation numbers 
     1.0000   1.0000   1.0000   1.0000   0.0000   0.0000   0.0000   0.0000

          k = 0.3906 0.4781 0.0000 (  6054 PWs)   bands (ev):

   -15.9467 -15.1149 -11.8093  -3.9459  -1.4311   8.4002   8.7622   9.5196

     occupation numbers 
     1.0000   1.0000   1.0000   1.0000   0.0000   0.0000   0.0000   0.0000

          k = 0.3958 0.4691 0.0000 (  6046 PWs)   bands (ev):

   -16.0125 -15.1709 -11.6160  -4.0409  -1.3678   8.4891   8.5030   9.4449

     occupation numbers 
     1.0000   1.0000   1.0000   1.0000   0.0000   0.0000   0.0000   0.0000

          k = 0.4010 0.4601 0.0000 (  6048 PWs)   bands (ev):

   -16.0752 -15.2263 -11.4225  -4.1314  -1.3110   8.2141   8.6087   9.3720

     occupation numbers 
     1.0000   1.0000   1.0000   1.0000   0.0000   0.0000   0.0000   0.0000

          k = 0.4062 0.4511 0.0000 (  6044 PWs)   bands (ev):

   -16.1347 -15.2805 -11.2300  -4.2174  -1.2605   7.9397   8.7154   9.3013

     occupation numbers 
     1.0000   1.0000   1.0000   1.0000   0.0000   0.0000   0.0000   0.0000

          k = 0.4115 0.4420 0.0000 (  6048 PWs)   bands (ev):

   -16.1909 -15.3330 -11.0396  -4.2988  -1.2157   7.6681   8.8211   9.2331

     occupation numbers 
     1.0000   1.0000   1.0000   1.0000   0.0000   0.0000   0.0000   0.0000

          k = 0.4167 0.4330 0.0000 (  6048 PWs)   bands (ev):

   -16.2440 -15.3835 -10.8521  -4.3756  -1.1763   7.4013   8.9235   9.1678

     occupation numbers 
     1.0000   1.0000   1.0000   1.0000   0.0000   0.0000   0.0000   0.0000

          k = 0.4219 0.4240 0.0000 (  6032 PWs)   bands (ev):

   -16.2939 -15.4317 -10.6687  -4.4478  -1.1419   7.1409   9.0208   9.1056

     occupation numbers 
     1.0000   1.0000   1.0000   1.0000   0.0000   0.0000   0.0000   0.0000

          k = 0.4271 0.4150 0.0000 (  6048 PWs)   bands (ev):

   -16.3405 -15.4774 -10.4901  -4.5155  -1.1120   6.8885   9.0466   9.1109

     occupation numbers 
     1.0000   1.0000   1.0000   1.0000   0.0000   0.0000   0.0000   0.0000

          k = 0.4323 0.4059 0.0000 (  6046 PWs)   bands (ev):

   -16.3840 -15.5205 -10.3175  -4.5785  -1.0862   6.6456   8.9911   9.1170

     occupation numbers 
     1.0000   1.0000   1.0000   1.0000   0.0000   0.0000   0.0000   0.0000

          k = 0.4375 0.3969 0.0000 (  6050 PWs)   bands (ev):

   -16.4242 -15.5608 -10.1518  -4.6369  -1.0640   6.4135   8.9392   9.0602

     occupation numbers 
     1.0000   1.0000   1.0000   1.0000   0.0000   0.0000   0.0000   0.0000

          k = 0.4427 0.3879 0.0000 (  6050 PWs)   bands (ev):

   -16.4612 -15.5981  -9.9941  -4.6907  -1.0452   6.1937   8.8910   9.0076

     occupation numbers 
     1.0000   1.0000   1.0000   1.0000   0.0000   0.0000   0.0000   0.0000

          k = 0.4479 0.3789 0.0000 (  6044 PWs)   bands (ev):

   -16.4950 -15.6324  -9.8453  -4.7398  -1.0292   5.9874   8.8468   8.9594

     occupation numbers 
     1.0000   1.0000   1.0000   1.0000   0.0000   0.0000   0.0000   0.0000

          k = 0.4531 0.3699 0.0000 (  6038 PWs)   bands (ev):

   -16.5256 -15.6637  -9.7065  -4.7843  -1.0159   5.7960   8.8064   8.9156

     occupation numbers 
     1.0000   1.0000   1.0000   1.0000   0.0000   0.0000   0.0000   0.0000

          k = 0.4583 0.3608 0.0000 (  6034 PWs)   bands (ev):

   -16.5530 -15.6918  -9.5787  -4.8241  -1.0048   5.6206   8.7702   8.8762

     occupation numbers 
     1.0000   1.0000   1.0000   1.0000   0.0000   0.0000   0.0000   0.0000

          k = 0.4635 0.3518 0.0000 (  6038 PWs)   bands (ev):

   -16.5772 -15.7167  -9.4629  -4.8593  -0.9957   5.4626   8.7380   8.8414

     occupation numbers 
     1.0000   1.0000   1.0000   1.0000   0.0000   0.0000   0.0000   0.0000

          k = 0.4687 0.3428 0.0000 (  6046 PWs)   bands (ev):

   -16.5981 -15.7384  -9.3603  -4.8898  -0.9883   5.3229   8.7100   8.8112

     occupation numbers 
     1.0000   1.0000   1.0000   1.0000   0.0000   0.0000   0.0000   0.0000

          k = 0.4740 0.3338 0.0000 (  6040 PWs)   bands (ev):

   -16.6158 -15.7568  -9.2716  -4.9156  -0.9824   5.2027   8.6863   8.7855

     occupation numbers 
     1.0000   1.0000   1.0000   1.0000   0.0000   0.0000   0.0000   0.0000

          k = 0.4792 0.3248 0.0000 (  6036 PWs)   bands (ev):

   -16.6303 -15.7718  -9.1977  -4.9367  -0.9778   5.1030   8.6668   8.7645

     occupation numbers 
     1.0000   1.0000   1.0000   1.0000   0.0000   0.0000   0.0000   0.0000

          k = 0.4844 0.3157 0.0000 (  6038 PWs)   bands (ev):

   -16.6416 -15.7836  -9.1395  -4.9531  -0.9744   5.0245   8.6516   8.7481

     occupation numbers 
     1.0000   1.0000   1.0000   1.0000   0.0000   0.0000   0.0000   0.0000

          k = 0.4896 0.3067 0.0000 (  6032 PWs)   bands (ev):

   -16.6497 -15.7920  -9.0974  -4.9648  -0.9721   4.9679   8.6407   8.7364

     occupation numbers 
     1.0000   1.0000   1.0000   1.0000   0.0000   0.0000   0.0000   0.0000

          k = 0.4948 0.2977 0.0000 (  6040 PWs)   bands (ev):

   -16.6545 -15.7970  -9.0720  -4.9719  -0.9707   4.9338   8.6342   8.7294

     occupation numbers 
     1.0000   1.0000   1.0000   1.0000   0.0000   0.0000   0.0000   0.0000

          k = 0.5000 0.2887 0.0000 (  6048 PWs)   bands (ev):

   -16.6561 -15.7987  -9.0635  -4.9742  -0.9703   4.9224   8.6320   8.7270

     occupation numbers 
     1.0000   1.0000   1.0000   1.0000   0.0000   0.0000   0.0000   0.0000

          k = 0.4844 0.2797 0.0000 (  6040 PWs)   bands (ev):

   -16.7715 -15.6749  -9.0577  -5.0129  -0.9226   4.9250   8.2092   9.1596

     occupation numbers 
     1.0000   1.0000   1.0000   1.0000   0.0000   0.0000   0.0000   0.0000

          k = 0.4688 0.2706 0.0000 (  6030 PWs)   bands (ev):

   -17.0172 -15.4038  -9.0405  -5.1235  -0.7851   4.9327   7.7538   8.7701

     occupation numbers 
     1.0000   1.0000   1.0000   1.0000   0.0000   0.0000   0.0000   0.0000

          k = 0.4531 0.2616 0.0000 (  6036 PWs)   bands (ev):

   -17.2998 -15.0791  -9.0118  -5.2928  -0.5710   4.9453   7.3099   8.3296

     occupation numbers 
     1.0000   1.0000   1.0000   1.0000   0.0000   0.0000   0.0000   0.0000

          k = 0.4375 0.2526 0.0000 (  6024 PWs)   bands (ev):

   -17.5900 -14.7300  -8.9718  -5.5052  -0.2964   4.9627   6.8791   7.8975

     occupation numbers 
     1.0000   1.0000   1.0000   1.0000   0.0000   0.0000   0.0000   0.0000

          k = 0.4219 0.2436 0.0000 (  6024 PWs)   bands (ev):

   -17.8785 -14.3661  -8.9205  -5.7465   0.0242   4.9840   6.4625   7.4766

     occupation numbers 
     1.0000   1.0000   1.0000   1.0000   0.0000   0.0000   0.0000   0.0000

          k = 0.4062 0.2345 0.0000 (  6026 PWs)   bands (ev):

   -18.1614 -13.9917  -8.8582  -6.0059   0.3794   5.0079   6.0619   7.0682

     occupation numbers 
     1.0000   1.0000   1.0000   1.0000   0.0000   0.0000   0.0000   0.0000

          k = 0.3906 0.2255 0.0000 (  6026 PWs)   bands (ev):

   -18.4369 -13.6088  -8.7850  -6.2750   0.7604   5.0299   5.6818   6.6734

     occupation numbers 
     1.0000   1.0000   1.0000   1.0000   0.0000   0.0000   0.0000   0.0000

          k = 0.3750 0.2165 0.0000 (  6018 PWs)   bands (ev):

   -18.7039 -13.2189  -8.7011  -6.5481   1.1605   5.0250   5.3470   6.2926

     occupation numbers 
     1.0000   1.0000   1.0000   1.0000   0.0000   0.0000   0.0000   0.0000

          k = 0.3594 0.2075 0.0000 (  6022 PWs)   bands (ev):

   -18.9618 -12.8231  -8.6068  -6.8211   1.5745   4.8508   5.1998   5.9264

     occupation numbers 
     1.0000   1.0000   1.0000   1.0000   0.0000   0.0000   0.0000   0.0000

          k = 0.3438 0.1985 0.0000 (  6026 PWs)   bands (ev):

   -19.2101 -12.4223  -8.5026  -7.0907   1.9983   4.5374   5.2093   5.5752

     occupation numbers 
     1.0000   1.0000   1.0000   1.0000   0.0000   0.0000   0.0000   0.0000

          k = 0.3281 0.1894 0.0000 (  6028 PWs)   bands (ev):

   -19.4486 -12.0177  -8.3887  -7.3548   2.4280   4.2144   5.2397   5.2437

     occupation numbers 
     1.0000   1.0000   1.0000   1.0000   0.0000   0.0000   0.0000   0.0000

          k = 0.3125 0.1804 0.0000 (  6026 PWs)   bands (ev):

   -19.6769 -11.6101  -8.2656  -7.6117   2.8600   3.9010   4.9209   5.2033

     occupation numbers 
     1.0000   1.0000   1.0000   1.0000   0.0000   0.0000   0.0000   0.0000

          k = 0.2969 0.1714 0.0000 (  6012 PWs)   bands (ev):

   -19.8949 -11.2007  -8.1339  -7.8601   3.2887   3.6007   4.6213   4.9045

     occupation numbers 
     1.0000   1.0000   1.0000   1.0000   0.0000   0.0000   0.0000   0.0000

          k = 0.2812 0.1624 0.0000 (  6006 PWs)   bands (ev):

   -20.1024 -10.7906  -8.0989  -7.9941   3.3146   3.6978   4.3546   4.6079

     occupation numbers 
     1.0000   1.0000   1.0000   1.0000   0.0000   0.0000   0.0000   0.0000

          k = 0.2656 0.1534 0.0000 (  6006 PWs)   bands (ev):

   -20.2993 -10.3811  -8.3274  -7.8471   3.0433   3.9177   4.2861   4.3263

     occupation numbers 
     1.0000   1.0000   1.0000   1.0000   0.0000   0.0000   0.0000   0.0000

          k = 0.2500 0.1443 0.0000 (  5994 PWs)   bands (ev):

   -20.4854  -9.9735  -8.5449  -7.6937   2.7871   3.7356   4.0605   4.6130

     occupation numbers 
     1.0000   1.0000   1.0000   1.0000   0.0000   0.0000   0.0000   0.0000

          k = 0.2344 0.1353 0.0000 (  6000 PWs)   bands (ev):

   -20.6607  -9.5696  -8.7509  -7.5347   2.5460   3.5044   3.8107   4.7133

     occupation numbers 
     1.0000   1.0000   1.0000   1.0000   0.0000   0.0000   0.0000   0.0000

          k = 0.2188 0.1263 0.0000 (  5984 PWs)   bands (ev):

   -20.8250  -9.1709  -8.9450  -7.3714   2.3203   3.2801   3.5769   4.5078

     occupation numbers 
     1.0000   1.0000   1.0000   1.0000   0.0000   0.0000   0.0000   0.0000

          k = 0.2031 0.1173 0.0000 (  5982 PWs)   bands (ev):

   -20.9783  -9.1268  -8.7796  -7.2050   2.1099   3.0688   3.3592   4.2984

     occupation numbers 
     1.0000   1.0000   1.0000   1.0000   0.0000   0.0000   0.0000   0.0000

          k = 0.1875 0.1083 0.0000 (  5980 PWs)   bands (ev):

   -21.1204  -9.2961  -8.3978  -7.0370   1.9150   2.8722   3.1576   4.1017

     occupation numbers 
     1.0000   1.0000   1.0000   1.0000   0.0000   0.0000   0.0000   0.0000

          k = 0.1719 0.0992 0.0000 (  5972 PWs)   bands (ev):

   -21.2515  -9.4525  -8.0280  -6.8689   1.7356   2.6906   2.9722   3.9198

     occupation numbers 
     1.0000   1.0000   1.0000   1.0000   0.0000   0.0000   0.0000   0.0000

          k = 0.1562 0.0902 0.0000 (  5960 PWs)   bands (ev):

   -21.3713  -9.5959  -7.6729  -6.7028   1.5717   2.5246   2.8028   3.7533

     occupation numbers 
     1.0000   1.0000   1.0000   1.0000   0.0000   0.0000   0.0000   0.0000

          k = 0.1406 0.0812 0.0000 (  5950 PWs)   bands (ev):

   -21.4798  -9.7262  -7.3355  -6.5406   1.4234   2.3741   2.6496   3.6024

     occupation numbers 
     1.0000   1.0000   1.0000   1.0000   0.0000   0.0000   0.0000   0.0000

          k = 0.1250 0.0722 0.0000 (  5957 PWs)   bands (ev):

   -21.5770  -9.8430  -7.0192  -6.3848   1.2906   2.2393   2.5125   3.4673

     occupation numbers 
     1.0000   1.0000   1.0000   1.0000   0.0000   0.0000   0.0000   0.0000

          k = 0.1094 0.0631 0.0000 (  5967 PWs)   bands (ev):

   -21.6629  -9.9464  -6.7274  -6.2379   1.1735   2.1203   2.3915   3.3479

     occupation numbers 
     1.0000   1.0000   1.0000   1.0000   0.0000   0.0000   0.0000   0.0000

          k = 0.0938 0.0541 0.0000 (  5975 PWs)   bands (ev):

   -21.7374 -10.0362  -6.4639  -6.1025   1.0720   2.0171   2.2867   3.2445

     occupation numbers 
     1.0000   1.0000   1.0000   1.0000   0.0000   0.0000   0.0000   0.0000

          k = 0.0781 0.0451 0.0000 (  5945 PWs)   bands (ev):

   -21.8005 -10.1123  -6.2324  -5.9815   0.9861   1.9298   2.1980   3.1569

     occupation numbers 
     1.0000   1.0000   1.0000   1.0000   0.0000   0.0000   0.0000   0.0000

          k = 0.0625 0.0361 0.0000 (  5957 PWs)   bands (ev):

   -21.8521 -10.1746  -6.0368  -5.8776   0.9158   1.8583   2.1254   3.0852

     occupation numbers 
     1.0000   1.0000   1.0000   1.0000   0.0000   0.0000   0.0000   0.0000

          k = 0.0469 0.0271 0.0000 (  5955 PWs)   bands (ev):

   -21.8923 -10.2232  -5.8806  -5.7934   0.8612   1.8026   2.0690   3.0294

     occupation numbers 
     1.0000   1.0000   1.0000   1.0000   0.0000   0.0000   0.0000   0.0000

          k = 0.0312 0.0180 0.0000 (  5949 PWs)   bands (ev):

   -21.9210 -10.2579  -5.7673  -5.7306   0.8222   1.7629   2.0287   2.9896

     occupation numbers 
     1.0000   1.0000   1.0000   1.0000   0.0000   0.0000   0.0000   0.0000

          k = 0.0156 0.0090 0.0000 (  5953 PWs)   bands (ev):

   -21.9382 -10.2787  -5.7029  -5.6876   0.7987   1.7390   2.0045   2.9657

     occupation numbers 
     1.0000   1.0000   1.0000   1.0000   0.0000   0.0000   0.0000   0.0000

          k = 0.0000 0.0000 0.0000 (  5945 PWs)   bands (ev):

   -21.9440 -10.2857  -5.6860  -5.6684   0.7909   1.7311   1.9964   2.9577

     occupation numbers 
     1.0000   1.0000   1.0000   1.0000   0.0000   0.0000   0.0000   0.0000

     the Fermi energy is    -2.6089 ev

     Writing output data file Gr-hex.save
 
     init_run     :      0.67s CPU      0.74s WALL (       1 calls)
     electrons    :    202.11s CPU    202.49s WALL (       1 calls)

     Called by init_run:
     wfcinit      :      0.00s CPU      0.00s WALL (       1 calls)
     potinit      :      0.09s CPU      0.11s WALL (       1 calls)

     Called by electrons:
     c_bands      :    202.09s CPU    202.48s WALL (       1 calls)
     v_of_rho     :      0.03s CPU      0.05s WALL (       1 calls)
     v_h          :      0.01s CPU      0.02s WALL (       1 calls)
     v_xc         :      0.02s CPU      0.03s WALL (       1 calls)
     newd         :      0.14s CPU      0.16s WALL (       1 calls)

     Called by c_bands:
     init_us_2    :      0.17s CPU      0.15s WALL (      97 calls)
     cegterg      :    195.89s CPU    196.32s WALL (     377 calls)

     Called by sum_band:

     Called by *egterg:
     h_psi        :    172.83s CPU    172.87s WALL (    6975 calls)
     s_psi        :      2.92s CPU      2.81s WALL (    6975 calls)
     g_psi        :      3.08s CPU      3.02s WALL (    6501 calls)
     cdiaghg      :      1.64s CPU      1.67s WALL (    6598 calls)
     cegterg:over :      7.44s CPU      7.62s WALL (    6501 calls)
     cegterg:upda :      6.10s CPU      6.34s WALL (    6501 calls)
     cegterg:last :      4.57s CPU      4.57s WALL (    1179 calls)

     Called by h_psi:
     h_psi:vloc   :    165.81s CPU    166.00s WALL (    6975 calls)
     h_psi:vnl    :      6.57s CPU      6.41s WALL (    6975 calls)
     add_vuspsi   :      2.80s CPU      2.85s WALL (    6975 calls)

     General routines
     calbec       :      3.70s CPU      3.54s WALL (    6975 calls)
     fft          :      0.07s CPU      0.06s WALL (       5 calls)
     ffts         :      0.00s CPU      0.01s WALL (       1 calls)
     fftw         :    145.08s CPU    144.95s WALL (   55228 calls)
     interpolate  :      0.02s CPU      0.02s WALL (       1 calls)
     davcio       :      0.00s CPU      0.03s WALL (      97 calls)
 
     Parallel routines
     fft_scatter  :      7.40s CPU      7.72s WALL (   55234 calls)
 
     PWSCF        :  3m23.29s CPU     3m23.81s WALL

 
   This run was terminated on:   8:56:20  18Oct2013            

=------------------------------------------------------------------------------=
   JOB DONE.
=------------------------------------------------------------------------------=
